 Q-Chem 5.1, Q-Chem, Inc., Pleasanton, CA (2018)
 Q-Chem 5.1.1 for Intel X86 EM64T Linux

User input:
--------------------------------------------------------------
$molecule
READ ./zmat.inp
$end

$rem
mem_total               230000
mem_static              2048
job_type                optimization
basis                   6-31g**
method                  b3lyp
symmetry                false
sym_ignore              true
geom_opt_max_cycles     500
$end
--------------------------------------------------------------

   13    -574.0202008729      1.60e-09  Convergence criterion met
 Total energy in the final basis set =     -574.0202008729
   11    -574.0600915943      7.84e-09  Convergence criterion met
 Total energy in the final basis set =     -574.0600915943
   10    -574.0849538306      6.81e-09  Convergence criterion met
 Total energy in the final basis set =     -574.0849538306
   10    -574.1013311167      7.56e-09  Convergence criterion met
 Total energy in the final basis set =     -574.1013311167
   10    -574.1058704655      3.67e-09  Convergence criterion met
 Total energy in the final basis set =     -574.1058704655
   10    -574.1089986649      3.72e-09  Convergence criterion met
 Total energy in the final basis set =     -574.1089986649
   10    -574.1107915788      1.81e-09  Convergence criterion met
 Total energy in the final basis set =     -574.1107915788
    9    -574.1114747722      6.49e-09  Convergence criterion met
    9    -574.1150632882      2.34e-09  Convergence criterion met
 Total energy in the final basis set =     -574.1150632882
    9    -574.1150761138      2.91e-09  Convergence criterion met
 Total energy in the final basis set =     -574.1150761138
   10    -574.1151187622      1.20e-09  Convergence criterion met
 Total energy in the final basis set =     -574.1151187622
    9    -574.1151269414      4.61e-09  Convergence criterion met
 Total energy in the final basis set =     -574.1151269414
    8    -574.1151296773      6.81e-09  Convergence criterion met
 Total energy in the final basis set =     -574.1151296773
    9    -574.1151310886      2.65e-09  Convergence criterion met
 Total energy in the final basis set =     -574.1151310886

             Standard Nuclear Orientation (Angstroms)
    I     Atom           X                Y                Z
 ----------------------------------------------------------------
    1      O      -1.0631892405     0.0000000000     0.1009450876
    2      C      -0.0744753966     0.0000000000     0.6583201326
    3      Cl      3.0051669169     0.0000000000     2.4034300358
    4      H       1.8817112826     0.0000000000     1.7615183064
 ----------------------------------------------------------------

    8    -574.1151312760      4.64e-09  Convergence criterion met
 Total energy in the final basis set =     -574.1151312760
 Final energy is   -574.115131276019
 **  OPTIMIZATION CONVERGED  **

                    Orbital Energies (a.u.)
 --------------------------------------------------------------

 Alpha MOs
 -- Occupied --
******* -19.287 -10.335  -9.458  -7.221  -7.212  -7.212  -1.187
 -0.832  -0.596  -0.495  -0.495  -0.468  -0.399  -0.318  -0.318

          Ground-State Mulliken Net Atomic Charges

     Atom                 Charge (a.u.)
  ----------------------------------------
      1 O                    -0.180573
      2 C                     0.236516
      3 Cl                   -0.199470
      4 H                     0.143527
  ----------------------------------------
  Sum of atomic charges =    -0.000000

                    Cartesian Multipole Moments
 -----------------------------------------------------------------
    Charge (ESU x 10^10)
                -0.0000
    Dipole Moment (Debye)
         X      -1.9724      Y       0.0000      Z      -1.1226
       Tot       2.2695
    Quadrupole Moments (Debye-Ang)
        XX     -31.4519     XY      -0.0000     YY     -23.7443
        XZ      -5.7501     YZ      -0.0000     ZZ     -27.7929

 Total job time:  29.25s(wall), 229.81s(cpu)
        *  Thank you very much for using Q-Chem.  Have a nice day.  *
