 Q-Chem 5.1, Q-Chem, Inc., Pleasanton, CA (2018)
 Q-Chem 5.1.1 for Intel X86 EM64T Linux

User input:
--------------------------------------------------------------
$molecule
READ ./zmat.inp
$end

$rem
mem_total               230000
mem_static              2048
job_type                optimization
basis                   6-31g**
method                  b3lyp
symmetry                false
sym_ignore              true
geom_opt_max_cycles     500
$end
--------------------------------------------------------------

   12     -94.4567574885      3.87e-09  Convergence criterion met
 Total energy in the final basis set =      -94.4567574885
   11     -94.4925079159      4.82e-09  Convergence criterion met
 Total energy in the final basis set =      -94.4925079159
   11     -94.5053596596      4.23e-09  Convergence criterion met
 Total energy in the final basis set =      -94.5053596596
   11     -94.5181587135      4.79e-09  Convergence criterion met
 Total energy in the final basis set =      -94.5181587135
   11     -94.5291925476      4.92e-09  Convergence criterion met
 Total energy in the final basis set =      -94.5291925476
   11     -94.5388830430      3.56e-09  Convergence criterion met
 Total energy in the final basis set =      -94.5388830430
   10     -94.5492100249      5.69e-09  Convergence criterion met
 Total energy in the final basis set =      -94.5492100249
   10     -94.5619003605      6.25e-09  Convergence criterion met
   10     -94.6308436465      5.35e-09  Convergence criterion met
 Total energy in the final basis set =      -94.6308436465
    9     -94.6330245253      9.05e-09  Convergence criterion met
 Total energy in the final basis set =      -94.6330245253
    9     -94.6333364170      3.82e-09  Convergence criterion met
 Total energy in the final basis set =      -94.6333364170
    9     -94.6333945511      3.48e-09  Convergence criterion met
 Total energy in the final basis set =      -94.6333945511
    9     -94.6334238695      3.03e-09  Convergence criterion met
 Total energy in the final basis set =      -94.6334238695
    9     -94.6334459270      1.80e-09  Convergence criterion met
 Total energy in the final basis set =      -94.6334459270

             Standard Nuclear Orientation (Angstroms)
    I     Atom           X                Y                Z
 ----------------------------------------------------------------
    1      H       0.0673379474     0.3882446609    -0.1707592699
    2      N      -0.2147384962    -0.1080244146     0.6815940513
    3      C       0.7984792530    -0.3381244442     1.4122536903
    4      H       0.6550553448    -0.8636497240     2.3607018412
    5      H       1.8332080397    -0.0534460781     1.1787096871
 ----------------------------------------------------------------

    8     -94.6334471650      2.71e-09  Convergence criterion met
 Total energy in the final basis set =      -94.6334471650
 Final energy is   -94.6334471650324
 **  OPTIMIZATION CONVERGED  **

                    Orbital Energies (a.u.)
 --------------------------------------------------------------

 Alpha MOs
 -- Occupied --
-14.333 -10.235  -0.903  -0.620  -0.500  -0.426  -0.330  -0.268

          Ground-State Mulliken Net Atomic Charges

     Atom                 Charge (a.u.)
  ----------------------------------------
      1 H                     0.233970
      2 N                    -0.425251
      3 C                    -0.013981
      4 H                     0.113673
      5 H                     0.091589
  ----------------------------------------
  Sum of atomic charges =    -0.000000

                    Cartesian Multipole Moments
 -----------------------------------------------------------------
    Charge (ESU x 10^10)
                 0.0000
    Dipole Moment (Debye)
         X       1.9043      Y       0.3810      Z      -0.1596
       Tot       1.9486
    Quadrupole Moments (Debye-Ang)
        XX     -12.6363     XY      -0.3964     YY     -12.7144
        XZ       1.9548     YZ      -0.9055     ZZ     -11.0495

 Total job time:  13.94s(wall), 109.40s(cpu)
        *  Thank you very much for using Q-Chem.  Have a nice day.  *
