 Q-Chem 5.1, Q-Chem, Inc., Pleasanton, CA (2018)
 Q-Chem 5.1.1 for Intel X86 EM64T Linux

User input:
--------------------------------------------------------------
$molecule
READ ./zmat.inp
$end

$rem
mem_total               230000
mem_static              2048
job_type                optimization
basis                   6-31g**
method                  b3lyp
symmetry                false
sym_ignore              true
geom_opt_max_cycles     500
$end
--------------------------------------------------------------

   16    -270.2475355272      3.39e-09  Convergence criterion met
 Total energy in the final basis set =     -270.2475355272
   13    -270.3293269147      5.64e-09  Convergence criterion met
 Total energy in the final basis set =     -270.3293269147
   13    -270.3809781117      2.56e-09  Convergence criterion met
 Total energy in the final basis set =     -270.3809781117
   12    -270.4164846246      3.64e-09  Convergence criterion met
 Total energy in the final basis set =     -270.4164846246
   12    -270.4411229779      5.39e-09  Convergence criterion met
 Total energy in the final basis set =     -270.4411229779
   12    -270.4585071240      6.44e-09  Convergence criterion met
 Total energy in the final basis set =     -270.4585071240
   11    -270.4709342415      6.11e-09  Convergence criterion met
 Total energy in the final basis set =     -270.4709342415
   11    -270.4799227733      9.63e-09  Convergence criterion met
   10    -270.5170226840      5.54e-09  Convergence criterion met
 Total energy in the final basis set =     -270.5170226840
    9    -270.5170264292      8.58e-09  Convergence criterion met
 Total energy in the final basis set =     -270.5170264292
   10    -270.5170288678      3.68e-09  Convergence criterion met
 Total energy in the final basis set =     -270.5170288678
    9    -270.5170286452      6.43e-09  Convergence criterion met
 Total energy in the final basis set =     -270.5170286452
    9    -270.5170322659      4.60e-09  Convergence criterion met
 Total energy in the final basis set =     -270.5170322659
    8    -270.5170332485      7.55e-09  Convergence criterion met
 Total energy in the final basis set =     -270.5170332485

             Standard Nuclear Orientation (Angstroms)
    I     Atom           X                Y                Z
 ----------------------------------------------------------------
    1      C      -0.5103100606     1.5063881281     0.6147147068
    2      C      -0.3058255534     0.4011298018     1.3301550476
    3      C       1.0415782797    -0.0472579110     1.8224716133
    4      O       1.3142527826    -1.4201343579     1.5182496649
    5      C       1.5536286807    -1.7018454198     0.2037129538
    6      C       1.7752846582    -2.9424602292    -0.2283485610
    7      H       0.3120677779     2.1555322553     0.3222574086
    8      H      -1.5043920567     1.8112352157     0.3021794673
    9      H      -1.1418896505    -0.2387747899     1.6087191444
   10      H       1.0858790312     0.0009460636     2.9158500652
   11      H       1.8348100987     0.6017668919     1.4245805729
   12      H       1.9766303802    -3.1193159915    -1.2773522643
   13      H       1.7613704539    -3.7895393827     0.4482140653
   14      H       1.5555157629    -0.8436111647    -0.4672793955
 ----------------------------------------------------------------

    9    -270.5170341745      7.36e-09  Convergence criterion met
 Total energy in the final basis set =     -270.5170341745
 Final energy is   -270.517034174504
 **  OPTIMIZATION CONVERGED  **

                    Orbital Energies (a.u.)
 --------------------------------------------------------------

 Alpha MOs
 -- Occupied --
-19.170 -10.247 -10.232 -10.199 -10.194 -10.161  -1.054  -0.798
 -0.749  -0.678  -0.582  -0.566  -0.512  -0.477  -0.458  -0.438
 -0.401  -0.382  -0.380  -0.338  -0.326  -0.273  -0.217

          Ground-State Mulliken Net Atomic Charges

     Atom                 Charge (a.u.)
  ----------------------------------------
      1 C                    -0.234814
      2 C                    -0.039049
      3 C                     0.012057
      4 O                    -0.467809
      5 C                     0.213175
      6 C                    -0.300081
      7 H                     0.099164
      8 H                     0.108222
      9 H                     0.104416
     10 H                     0.121434
     11 H                     0.098957
     12 H                     0.095779
     13 H                     0.100120
     14 H                     0.088429
  ----------------------------------------
  Sum of atomic charges =    -0.000000

                    Cartesian Multipole Moments
 -----------------------------------------------------------------
    Charge (ESU x 10^10)
                -0.0000
    Dipole Moment (Debye)
         X      -0.4052      Y       1.7443      Z      -0.1989
       Tot       1.8018
    Quadrupole Moments (Debye-Ang)
        XX     -37.4384     XY       2.2748     YY     -38.5822
        XZ      -1.1998     YZ       1.7498     ZZ     -36.0633

 Total job time:  157.26s(wall), 1251.09s(cpu)
        *  Thank you very much for using Q-Chem.  Have a nice day.  *
