 Q-Chem 5.1, Q-Chem, Inc., Pleasanton, CA (2018)
 Q-Chem 5.1.1 for Intel X86 EM64T Linux

User input:
--------------------------------------------------------------
$molecule
READ ./zmat.inp
$end

$rem
mem_total               230000
mem_static              2048
job_type                optimization
basis                   6-31g**
method                  b3lyp
symmetry                false
sym_ignore              true
geom_opt_max_cycles     500
$end
--------------------------------------------------------------

   10    -114.4848787476      8.42e-09  Convergence criterion met
 Total energy in the final basis set =     -114.4848787476
   10    -114.4971195479      8.35e-10  Convergence criterion met
 Total energy in the final basis set =     -114.4971195479
    9    -114.5028246795      2.99e-09  Convergence criterion met
 Total energy in the final basis set =     -114.5028246795
    8    -114.5031397069      3.73e-09  Convergence criterion met
 Total energy in the final basis set =     -114.5031397069
    8    -114.5031809238      8.49e-10  Convergence criterion met
 Total energy in the final basis set =     -114.5031809238
    7    -114.5031870834      3.27e-09  Convergence criterion met
 Total energy in the final basis set =     -114.5031870834
    8    -114.5031973565      2.13e-09  Convergence criterion met
 Total energy in the final basis set =     -114.5031973565
    7    -114.5031998249      5.76e-09  Convergence criterion met
 Total energy in the final basis set =     -114.5031998249

             Standard Nuclear Orientation (Angstroms)
    I     Atom           X                Y                Z
 ----------------------------------------------------------------
    1      C       0.0000000000     0.0000000000     0.0583400038
    2      O       0.0000000000     0.0000000000     1.2649129561
    3      H       0.9377006795     0.0000000000    -0.5366264799
    4      H      -0.9377006795     0.0000000000    -0.5366264799
 ----------------------------------------------------------------

    7    -114.5032002156      2.79e-09  Convergence criterion met
 Total energy in the final basis set =     -114.5032002156
 Final energy is   -114.503200215631
 **  OPTIMIZATION CONVERGED  **

                    Orbital Energies (a.u.)
 --------------------------------------------------------------

 Alpha MOs
 -- Occupied --
-19.170 -10.289  -1.061  -0.637  -0.494  -0.449  -0.399  -0.268

          Ground-State Mulliken Net Atomic Charges

     Atom                 Charge (a.u.)
  ----------------------------------------
      1 C                     0.176214
      2 O                    -0.339374
      3 H                     0.081580
      4 H                     0.081580
  ----------------------------------------
  Sum of atomic charges =     0.000000

                    Cartesian Multipole Moments
 -----------------------------------------------------------------
    Charge (ESU x 10^10)
                 0.0000
    Dipole Moment (Debye)
         X       0.0000      Y      -0.0000      Z      -2.1820
       Tot       2.1820
    Quadrupole Moments (Debye-Ang)
        XX     -11.4991     XY      -0.0000     YY     -11.3933
        XZ      -0.0000     YZ      -0.0000     ZZ     -14.5044

 Total job time:  5.59s(wall), 43.87s(cpu)
        *  Thank you very much for using Q-Chem.  Have a nice day.  *
