 Q-Chem 5.1, Q-Chem, Inc., Pleasanton, CA (2018)
 Q-Chem 5.1.1 for Intel X86 EM64T Linux

User input:
--------------------------------------------------------------
$molecule
READ ./zmat.inp
$end

$rem
mem_total               230000
mem_static              2048
job_type                optimization
basis                   6-31g**
method                  b3lyp
symmetry                false
sym_ignore              true
geom_opt_max_cycles     500
$end
--------------------------------------------------------------

   13    -643.5684563710      1.83e-09  Convergence criterion met
 Total energy in the final basis set =     -643.5684563710
   11    -643.5710282549      2.98e-09  Convergence criterion met
 Total energy in the final basis set =     -643.5710282549
   11    -643.5691311618      4.10e-09  Convergence criterion met
 Total energy in the final basis set =     -643.5691311618
   10    -643.5715934119      8.29e-09  Convergence criterion met
 Total energy in the final basis set =     -643.5715934119
   10    -643.5718486815      1.80e-09  Convergence criterion met
 Total energy in the final basis set =     -643.5718486815
   11    -643.5730388597      2.89e-09  Convergence criterion met
 Total energy in the final basis set =     -643.5730388597
   10    -643.5735010845      9.17e-09  Convergence criterion met
 Total energy in the final basis set =     -643.5735010845
   10    -643.5736825044      4.00e-09  Convergence criterion met
   10    -643.5737711453      2.66e-09  Convergence criterion met
 Total energy in the final basis set =     -643.5737711453
    9    -643.5737881589      8.50e-09  Convergence criterion met
 Total energy in the final basis set =     -643.5737881589
   10    -643.5737447229      1.28e-09  Convergence criterion met
 Total energy in the final basis set =     -643.5737447229
   10    -643.5737995808      1.90e-09  Convergence criterion met
 Total energy in the final basis set =     -643.5737995808
    8    -643.5738009697      8.24e-09  Convergence criterion met
 Total energy in the final basis set =     -643.5738009697
    8    -643.5738020805      1.99e-09  Convergence criterion met
 Total energy in the final basis set =     -643.5738020805

             Standard Nuclear Orientation (Angstroms)
    I     Atom           X                Y                Z
 ----------------------------------------------------------------
    1      P       0.0000000000     0.0082048188     0.0302222701
    2      O       0.0000000000     0.2462685775     1.5229532695
    3      O       1.3072654495    -0.1165802415    -0.6949142631
    4      O      -1.3072654495    -0.1165802415    -0.6949142630
    5      O       0.0000000000     2.0322823197     3.6188211633
    6      H       0.0000000000     1.5640402982     2.7544730975
    7      H       0.0000000000     1.2809757698     4.2241830749
 ----------------------------------------------------------------

    8    -643.5738024172      4.77e-09  Convergence criterion met
 Total energy in the final basis set =     -643.5738024172
 Final energy is   -643.573802417177
 **  OPTIMIZATION CONVERGED  **

                    Orbital Energies (a.u.)
 --------------------------------------------------------------

 Alpha MOs
 -- Occupied --
-77.000 -18.968 -18.941 -18.935 -18.935  -6.455  -4.621  -4.616
 -4.615  -0.833  -0.826  -0.756  -0.753  -0.346  -0.309  -0.234
 -0.219  -0.215  -0.200  -0.136  -0.131  -0.127  -0.116  -0.110
 -0.070

          Ground-State Mulliken Net Atomic Charges

     Atom                 Charge (a.u.)
  ----------------------------------------
      1 P                     0.910304
      2 O                    -0.631293
      3 O                    -0.604471
      4 O                    -0.604471
      5 O                    -0.686518
      6 H                     0.346012
      7 H                     0.270437
  ----------------------------------------
  Sum of atomic charges =    -1.000000

                    Cartesian Multipole Moments
 -----------------------------------------------------------------
    Charge (ESU x 10^10)
                -4.8032
    Dipole Moment (Debye)
         X      -0.0000      Y      -2.7342      Z      -2.1460
       Tot       3.4758
    Quadrupole Moments (Debye-Ang)
        XX     -45.6483     XY       0.0000     YY     -42.4819
        XZ       0.0000     YZ     -13.1346     ZZ     -51.6275

 Total job time:  17.37s(wall), 137.35s(cpu)
        *  Thank you very much for using Q-Chem.  Have a nice day.  *
