 Q-Chem 5.1, Q-Chem, Inc., Pleasanton, CA (2018)
 Q-Chem 5.1.1 for Intel X86 EM64T Linux

User input:
--------------------------------------------------------------
$molecule
READ ./zmat.inp
$end

$rem
mem_total               230000
mem_static              2048
job_type                optimization
basis                   6-31g**
method                  b3lyp
symmetry                false
sym_ignore              true
geom_opt_max_cycles     500
$end
--------------------------------------------------------------

   10     -93.3970864467      2.42e-09  Convergence criterion met
 Total energy in the final basis set =      -93.3970864467
    9     -93.3912736081      6.66e-09  Convergence criterion met
 Total energy in the final basis set =      -93.3912736081
    9     -93.4000136983      2.20e-10  Convergence criterion met
 Total energy in the final basis set =      -93.4000136983
    8     -93.4001061301      1.50e-09  Convergence criterion met
 Total energy in the final basis set =      -93.4001061301

             Standard Nuclear Orientation (Angstroms)
    I     Atom           X                Y                Z
 ----------------------------------------------------------------
    1      C       0.0000000000     0.0000000000    -0.0238835403
    2      N       0.0000000000     0.0000000000     1.1528487997
    3      H       0.0000000000     0.0000000000     2.1510347406
 ----------------------------------------------------------------

    7     -93.4001083406      2.49e-09  Convergence criterion met
 Total energy in the final basis set =      -93.4001083406
 Final energy is   -93.4001083406222
 **  OPTIMIZATION CONVERGED  **

                    Orbital Energies (a.u.)
 --------------------------------------------------------------

 Alpha MOs
 -- Occupied --
-14.377 -10.235  -0.942  -0.663  -0.371  -0.371  -0.313

          Ground-State Mulliken Net Atomic Charges

     Atom                 Charge (a.u.)
  ----------------------------------------
      1 C                     0.046901
      2 N                    -0.348184
      3 H                     0.301284
  ----------------------------------------
  Sum of atomic charges =    -0.000000

                    Cartesian Multipole Moments
 -----------------------------------------------------------------
    Charge (ESU x 10^10)
                 0.0000
    Dipole Moment (Debye)
         X       0.0000      Y      -0.0000      Z       2.9117
       Tot       2.9117
    Quadrupole Moments (Debye-Ang)
        XX     -11.5073     XY       0.0000     YY     -11.5073
        XZ       0.0000     YZ       0.0000     ZZ      -5.7733

 Total job time:  3.08s(wall), 24.07s(cpu)
        *  Thank you very much for using Q-Chem.  Have a nice day.  *
