 Q-Chem 5.1, Q-Chem, Inc., Pleasanton, CA (2018)
 Q-Chem 5.1.1 for Intel X86 EM64T Linux

User input:
--------------------------------------------------------------
$molecule
READ ./zmat.inp
$end

$rem
mem_total               230000
mem_static              2048
job_type                optimization
basis                   6-31g**
method                  b3lyp
symmetry                false
sym_ignore              true
geom_opt_max_cycles     500
$end
--------------------------------------------------------------

   12    -296.1941492372      1.50e-09  Convergence criterion met
 Total energy in the final basis set =     -296.1941492372
   10    -296.3197042043      5.64e-09  Convergence criterion met
 Total energy in the final basis set =     -296.3197042043
   11    -296.3717106362      1.55e-09  Convergence criterion met
 Total energy in the final basis set =     -296.3717106362
    9    -296.3723665857      4.04e-09  Convergence criterion met
 Total energy in the final basis set =     -296.3723665857
   10    -296.3724551691      7.76e-10  Convergence criterion met
 Total energy in the final basis set =     -296.3724551691
    8    -296.3724836945      5.43e-09  Convergence criterion met
 Total energy in the final basis set =     -296.3724836945
    8    -296.3725249471      7.63e-09  Convergence criterion met
 Total energy in the final basis set =     -296.3725249471
    9    -296.3726127804      4.75e-09  Convergence criterion met
   10    -296.3766414496      2.60e-09  Convergence criterion met
 Total energy in the final basis set =     -296.3766414496
    9    -296.3766607627      8.10e-09  Convergence criterion met
 Total energy in the final basis set =     -296.3766607627
    9    -296.3766652573      5.57e-09  Convergence criterion met
 Total energy in the final basis set =     -296.3766652573
    9    -296.3766664567      9.25e-09  Convergence criterion met
 Total energy in the final basis set =     -296.3766664567
   10    -296.3766684221      9.99e-09  Convergence criterion met
 Total energy in the final basis set =     -296.3766684221
    8    -296.3766685398      8.13e-09  Convergence criterion met
 Total energy in the final basis set =     -296.3766685398

             Standard Nuclear Orientation (Angstroms)
    I     Atom           X                Y                Z
 ----------------------------------------------------------------
    1      N       2.3036232631     0.0000000000     0.0479375448
    2      N       2.3036230456     0.0000000000     1.1520640461
    3      C       2.5733585097     0.0000000000    -3.5067003344
    4      C       2.5733570813     0.0000000000     4.7067011965
    5      N       2.6978495942     0.0000000000    -4.6571611130
    6      N       2.6978490666     0.0000000000     5.8571595527
    7      H       2.4596156880     0.0000000000    -2.4427987436
    8      H       2.4596148673     0.0000000000     3.6427978542
 ----------------------------------------------------------------

    7    -296.3766688216      9.84e-09  Convergence criterion met
 Total energy in the final basis set =     -296.3766688216
 Final energy is   -296.376668821569
 **  OPTIMIZATION CONVERGED  **

                    Orbital Energies (a.u.)
 --------------------------------------------------------------

 Alpha MOs
 -- Occupied --
-14.495 -14.493 -14.360 -14.360 -10.245 -10.245  -1.171  -0.920
 -0.920  -0.617  -0.608  -0.593  -0.508  -0.508  -0.477  -0.381
 -0.381  -0.360  -0.360  -0.360  -0.360

          Ground-State Mulliken Net Atomic Charges

     Atom                 Charge (a.u.)
  ----------------------------------------
      1 N                     0.018148
      2 N                     0.018149
      3 C                     0.184453
      4 C                     0.184453
      5 N                    -0.405646
      6 N                    -0.405646
      7 H                     0.203045
      8 H                     0.203045
  ----------------------------------------
  Sum of atomic charges =     0.000000

                    Cartesian Multipole Moments
 -----------------------------------------------------------------
    Charge (ESU x 10^10)
                 0.0000
    Dipole Moment (Debye)
         X      -0.6533      Y       0.0000      Z      -0.0000
       Tot       0.6533
    Quadrupole Moments (Debye-Ang)
        XX     -36.1864     XY       0.0000     YY     -32.8086
        XZ      -0.3920     YZ      -0.0000     ZZ     -85.3995

 Total job time:  95.96s(wall), 757.71s(cpu)
        *  Thank you very much for using Q-Chem.  Have a nice day.  *
