 Q-Chem 5.1, Q-Chem, Inc., Pleasanton, CA (2018)
 Q-Chem 5.1.1 for Intel X86 EM64T Linux

User input:
--------------------------------------------------------------
$molecule
READ ./zmat.inp
$end

$rem
mem_total               230000
mem_static              2048
job_type                optimization
basis                   6-31g**
method                  b3lyp
symmetry                false
sym_ignore              true
geom_opt_max_cycles     500
$end
--------------------------------------------------------------

   13    -234.2873328239      2.67e-09  Convergence criterion met
 Total energy in the final basis set =     -234.2873328239
   11    -234.3504775071      5.82e-09  Convergence criterion met
 Total energy in the final basis set =     -234.3504775071
   11    -234.3997082814      3.66e-09  Convergence criterion met
 Total energy in the final basis set =     -234.3997082814
   10    -234.4374762299      9.74e-09  Convergence criterion met
 Total energy in the final basis set =     -234.4374762299
   10    -234.4670287046      3.13e-09  Convergence criterion met
 Total energy in the final basis set =     -234.4670287046
   10    -234.4908846426      8.86e-09  Convergence criterion met
 Total energy in the final basis set =     -234.4908846426
   10    -234.5106432567      8.07e-09  Convergence criterion met
 Total energy in the final basis set =     -234.5106432567
   10    -234.5275515346      5.77e-09  Convergence criterion met
    9    -234.6532677157      3.65e-09  Convergence criterion met
 Total energy in the final basis set =     -234.6532677157
    9    -234.6534397266      2.25e-09  Convergence criterion met
 Total energy in the final basis set =     -234.6534397266
    9    -234.6535227474      3.80e-09  Convergence criterion met
 Total energy in the final basis set =     -234.6535227474
    8    -234.6535600109      7.61e-09  Convergence criterion met
 Total energy in the final basis set =     -234.6535600109
    8    -234.6535686784      2.47e-09  Convergence criterion met
 Total energy in the final basis set =     -234.6535686784
    8    -234.6535713022      2.13e-09  Convergence criterion met
 Total energy in the final basis set =     -234.6535713022

             Standard Nuclear Orientation (Angstroms)
    I     Atom           X                Y                Z
 ----------------------------------------------------------------
    1      C      -0.0420305584     1.3975236709    -0.1448995653
    2      C      -0.0420321261    -1.3975186402    -0.1449051101
    3      C       1.2463391469    -0.6683926053     0.1441445204
    4      C       1.2463405916     0.6683931467     0.1441441956
    5      C      -0.7774679031     0.7774654295    -1.3591233353
    6      C      -0.7774697878    -0.7774721781    -1.3591215740
    7      H       2.1505050622    -1.2359745119     0.3517503917
    8      H       2.1505065842     1.2359727650     0.3517559253
    9      H       0.1322392518     2.4642217715    -0.3206291317
   10      H       0.1322356842    -2.4642132167    -0.3206584234
   11      H      -0.6955267384     1.3385725707     0.7391487861
   12      H      -0.6955170708    -1.3385564068     0.7391566884
   13      H      -0.2867398673     1.1361291680    -2.2699448064
   14      H      -0.2867426601    -1.1361443979    -2.2699401838
   15      H      -1.8032115093     1.1610625870    -1.3915093608
   16      H      -1.8032136565    -1.1610691525    -1.3915020550
 ----------------------------------------------------------------

    7    -234.6535720490      6.03e-09  Convergence criterion met
 Total energy in the final basis set =     -234.6535720490
 Final energy is   -234.653572048984
 **  OPTIMIZATION CONVERGED  **

                    Orbital Energies (a.u.)
 --------------------------------------------------------------

 Alpha MOs
 -- Occupied --
-10.180 -10.180 -10.178 -10.178 -10.173 -10.172  -0.822  -0.730
 -0.730  -0.614  -0.587  -0.495  -0.486  -0.465  -0.395  -0.395
 -0.390  -0.371  -0.370  -0.318  -0.312  -0.296  -0.234

          Ground-State Mulliken Net Atomic Charges

     Atom                 Charge (a.u.)
  ----------------------------------------
      1 C                    -0.218716
      2 C                    -0.218715
      3 C                    -0.069981
      4 C                    -0.069980
      5 C                    -0.178668
      6 C                    -0.178667
      7 H                     0.077757
      8 H                     0.077757
      9 H                     0.092339
     10 H                     0.092339
     11 H                     0.107115
     12 H                     0.107115
     13 H                     0.100285
     14 H                     0.100284
     15 H                     0.089868
     16 H                     0.089868
  ----------------------------------------
  Sum of atomic charges =     0.000000

                    Cartesian Multipole Moments
 -----------------------------------------------------------------
    Charge (ESU x 10^10)
                -0.0000
    Dipole Moment (Debye)
         X      -0.2419      Y      -0.0000      Z      -0.0760
       Tot       0.2536
    Quadrupole Moments (Debye-Ang)
        XX     -37.5347     XY      -0.0000     YY     -36.7727
        XZ       0.0735     YZ       0.0001     ZZ     -38.9963

 Total job time:  90.44s(wall), 720.70s(cpu)
        *  Thank you very much for using Q-Chem.  Have a nice day.  *
