 Q-Chem 5.1, Q-Chem, Inc., Pleasanton, CA (2018)
 Q-Chem 5.1.1 for Intel X86 EM64T Linux

User input:
--------------------------------------------------------------
$molecule
READ ./zmat.inp
$end

$rem
mem_total               230000
mem_static              2048
job_type                optimization
basis                   6-31g**
method                  b3lyp
symmetry                false
sym_ignore              true
geom_opt_max_cycles     500
$end
--------------------------------------------------------------

   12     -79.6404657740      4.15e-09  Convergence criterion met
 Total energy in the final basis set =      -79.6404657740
   10     -79.6759604281      7.40e-09  Convergence criterion met
 Total energy in the final basis set =      -79.6759604281
   10     -79.7033331937      4.69e-09  Convergence criterion met
 Total energy in the final basis set =      -79.7033331937
   10     -79.7180350086      2.21e-09  Convergence criterion met
 Total energy in the final basis set =      -79.7180350086
    9     -79.7316642023      5.69e-09  Convergence criterion met
 Total energy in the final basis set =      -79.7316642023
    9     -79.7467396894      5.86e-09  Convergence criterion met
 Total energy in the final basis set =      -79.7467396894
    9     -79.7645159434      5.93e-09  Convergence criterion met
 Total energy in the final basis set =      -79.7645159434
    9     -79.7825859189      4.47e-09  Convergence criterion met
    9     -79.8336796695      1.48e-09  Convergence criterion met
 Total energy in the final basis set =      -79.8336796695
    9     -79.8339759528      1.50e-09  Convergence criterion met
 Total energy in the final basis set =      -79.8339759528
    7     -79.8341716741      8.08e-09  Convergence criterion met
 Total energy in the final basis set =      -79.8341716741
    8     -79.8342397299      8.45e-09  Convergence criterion met
 Total energy in the final basis set =      -79.8342397299
    8     -79.8342800737      7.01e-09  Convergence criterion met
 Total energy in the final basis set =      -79.8342800737
    7     -79.8342834903      2.29e-09  Convergence criterion met
 Total energy in the final basis set =      -79.8342834903

             Standard Nuclear Orientation (Angstroms)
    I     Atom           X                Y                Z
 ----------------------------------------------------------------
    1      C       0.1198556587     0.0000000000    -0.2398586282
    2      C       0.2910144660     0.0000000000     1.2949636128
    3      H       1.0834254206     0.0000000000    -0.7578512337
    4      H       1.3453978797     0.0000000000     1.5870500955
    5      H      -0.4301805348    -0.8793654805    -0.5875718184
    6      H      -0.4301805365     0.8793654790    -0.5875718199
    7      H      -0.1686054915     0.8795917611     1.7554198954
    8      H      -0.1686054934    -0.8795917591     1.7554198965
 ----------------------------------------------------------------

    6     -79.8342838582      3.97e-09  Convergence criterion met
 Total energy in the final basis set =      -79.8342838582
 Final energy is   -79.8342838582402
 **  OPTIMIZATION CONVERGED  **

                    Orbital Energies (a.u.)
 --------------------------------------------------------------

 Alpha MOs
 -- Occupied --
-10.172 -10.172  -0.744  -0.614  -0.428  -0.428  -0.363  -0.337
 -0.337

          Ground-State Mulliken Net Atomic Charges

     Atom                 Charge (a.u.)
  ----------------------------------------
      1 C                    -0.323863
      2 C                    -0.323921
      3 H                     0.107973
      4 H                     0.107963
      5 H                     0.107956
      6 H                     0.107956
      7 H                     0.107968
      8 H                     0.107968
  ----------------------------------------
  Sum of atomic charges =     0.000000

                    Cartesian Multipole Moments
 -----------------------------------------------------------------
    Charge (ESU x 10^10)
                 0.0000
    Dipole Moment (Debye)
         X      -0.0004      Y      -0.0000      Z      -0.0001
       Tot       0.0004
    Quadrupole Moments (Debye-Ang)
        XX     -14.7089     XY       0.0000     YY     -14.7030
        XZ      -0.0475     YZ      -0.0000     ZZ     -15.1199

 Total job time:  17.28s(wall), 136.16s(cpu)
        *  Thank you very much for using Q-Chem.  Have a nice day.  *
