 Q-Chem 5.1, Q-Chem, Inc., Pleasanton, CA (2018)
 Q-Chem 5.1.1 for Intel X86 EM64T Linux

User input:
--------------------------------------------------------------
$molecule
READ ./zmat.inp
$end

$rem
mem_total               230000
mem_static              2048
job_type                optimization
basis                   6-31g**
method                  b3lyp
symmetry                false
sym_ignore              true
geom_opt_max_cycles     500
$end
--------------------------------------------------------------

   12    -178.9254844659      4.40e-09  Convergence criterion met
 Total energy in the final basis set =     -178.9254844659
   10    -178.9635418234      6.20e-09  Convergence criterion met
 Total energy in the final basis set =     -178.9635418234
   10    -178.9947052022      3.81e-09  Convergence criterion met
 Total energy in the final basis set =     -178.9947052022
   10    -179.0080972092      4.97e-09  Convergence criterion met
 Total energy in the final basis set =     -179.0080972092
   10    -179.0133452304      1.41e-09  Convergence criterion met
 Total energy in the final basis set =     -179.0133452304
   10    -179.0170219867      8.15e-10  Convergence criterion met
 Total energy in the final basis set =     -179.0170219867
   10    -179.0192987991      6.27e-10  Convergence criterion met
 Total energy in the final basis set =     -179.0192987991
    9    -179.0205491578      9.16e-09  Convergence criterion met
    9    -179.0297373374      1.17e-09  Convergence criterion met
 Total energy in the final basis set =     -179.0297373374
    8    -179.0297474127      7.93e-09  Convergence criterion met
 Total energy in the final basis set =     -179.0297474127
    8    -179.0297532104      8.95e-09  Convergence criterion met
 Total energy in the final basis set =     -179.0297532104
    8    -179.0297576233      7.82e-09  Convergence criterion met
 Total energy in the final basis set =     -179.0297576233
    8    -179.0297587137      4.54e-09  Convergence criterion met
 Total energy in the final basis set =     -179.0297587137
    8    -179.0297593966      2.26e-09  Convergence criterion met
 Total energy in the final basis set =     -179.0297593966

             Standard Nuclear Orientation (Angstroms)
    I     Atom           X                Y                Z
 ----------------------------------------------------------------
    1      C      -0.2591705787     0.0000000000    -0.0722713268
    2      C      -0.0576981697     0.0000000000     1.2471641941
    3      H       1.9279329422     0.0000000000     0.0031089459
    4      F       2.7066963816     0.0000000000    -0.5103529656
    5      H      -0.3483646580    -0.9242177513    -0.6367293192
    6      H      -0.3483646619     0.9242177510    -0.6367293167
    7      H       0.0210823768     0.9245125402     1.8129048926
    8      H       0.0210823749    -0.9245125393     1.8129048957
 ----------------------------------------------------------------

    8    -179.0297601037      3.46e-09  Convergence criterion met
 Total energy in the final basis set =     -179.0297601037
 Final energy is   -179.029760103683
 **  OPTIMIZATION CONVERGED  **

                    Orbital Energies (a.u.)
 --------------------------------------------------------------

 Alpha MOs
 -- Occupied --
-24.634 -10.213 -10.212  -1.139  -0.785  -0.602  -0.492  -0.490
 -0.442  -0.377  -0.352  -0.351  -0.299

          Ground-State Mulliken Net Atomic Charges

     Atom                 Charge (a.u.)
  ----------------------------------------
      1 C                    -0.231099
      2 C                    -0.226104
      3 H                     0.339184
      4 F                    -0.389853
      5 H                     0.129861
      6 H                     0.129861
      7 H                     0.124075
      8 H                     0.124075
  ----------------------------------------
  Sum of atomic charges =    -0.000000

                    Cartesian Multipole Moments
 -----------------------------------------------------------------
    Charge (ESU x 10^10)
                -0.0000
    Dipole Moment (Debye)
         X      -2.2893      Y       0.0000      Z       1.1600
       Tot       2.5664
    Quadrupole Moments (Debye-Ang)
        XX     -28.0808     XY      -0.0000     YY     -17.2539
        XZ       2.9763     YZ      -0.0000     ZZ     -17.3315

 Total job time:  43.30s(wall), 341.83s(cpu)
        *  Thank you very much for using Q-Chem.  Have a nice day.  *
