 Q-Chem 5.1, Q-Chem, Inc., Pleasanton, CA (2018)
 Q-Chem 5.1.1 for Intel X86 EM64T Linux

User input:
--------------------------------------------------------------
$molecule
READ ./zmat.inp
$end

$rem
mem_total               230000
mem_static              2048
job_type                optimization
basis                   6-31g**
method                  b3lyp
symmetry                false
sym_ignore              true
geom_opt_max_cycles     500
$end
--------------------------------------------------------------

   12    -170.2174978067      2.03e-09  Convergence criterion met
 Total energy in the final basis set =     -170.2174978067
   10    -170.2231600809      4.96e-09  Convergence criterion met
 Total energy in the final basis set =     -170.2231600809
   10    -170.2257317556      2.21e-09  Convergence criterion met
 Total energy in the final basis set =     -170.2257317556
   10    -170.2287545581      5.10e-09  Convergence criterion met
 Total energy in the final basis set =     -170.2287545581
   10    -170.2308663633      5.53e-09  Convergence criterion met
 Total energy in the final basis set =     -170.2308663633
   10    -170.2317015929      3.69e-09  Convergence criterion met
 Total energy in the final basis set =     -170.2317015929
    9    -170.2319288683      6.98e-09  Convergence criterion met
 Total energy in the final basis set =     -170.2319288683
    9    -170.2313780902      9.96e-09  Convergence criterion met
   10    -170.2311820264      1.89e-09  Convergence criterion met
 Total energy in the final basis set =     -170.2311820264
   10    -170.2321112497      2.60e-09  Convergence criterion met
 Total energy in the final basis set =     -170.2321112497
    9    -170.2322579866      2.41e-09  Convergence criterion met
 Total energy in the final basis set =     -170.2322579866
    8    -170.2323109013      9.57e-09  Convergence criterion met
 Total energy in the final basis set =     -170.2323109013
    8    -170.2323175854      3.92e-09  Convergence criterion met
 Total energy in the final basis set =     -170.2323175854
    9    -170.2323240449      8.96e-10  Convergence criterion met
 Total energy in the final basis set =     -170.2323240449

             Standard Nuclear Orientation (Angstroms)
    I     Atom           X                Y                Z
 ----------------------------------------------------------------
    1      N      -0.0282298946     0.0000000000    -0.1421630944
    2      C       0.4642677414     0.0000000000     2.8616795067
    3      O       0.6521068046     0.0000000000     3.9752857439
    4      H       0.8710698083     0.0000000000    -0.6354308031
    5      H       0.1371823065     0.0000000000     0.8945244732
    6      H      -0.5588940300    -0.8359786857    -0.4101795107
    7      H      -0.5588940300     0.8359786857    -0.4101795107
 ----------------------------------------------------------------

    8    -170.2323245408      2.83e-09  Convergence criterion met
 Total energy in the final basis set =     -170.2323245408
 Final energy is   -170.232324540838
 **  OPTIMIZATION CONVERGED  **

                    Orbital Energies (a.u.)
 --------------------------------------------------------------

 Alpha MOs
 -- Occupied --
-19.435 -14.681 -10.486  -1.335  -1.217  -0.797  -0.797  -0.795
 -0.734  -0.639  -0.639  -0.573

          Ground-State Mulliken Net Atomic Charges

     Atom                 Charge (a.u.)
  ----------------------------------------
      1 N                    -0.629310
      2 C                     0.257025
      3 O                    -0.136344
      4 H                     0.383521
      5 H                     0.357761
      6 H                     0.383673
      7 H                     0.383673
  ----------------------------------------
  Sum of atomic charges =     1.000000

                    Cartesian Multipole Moments
 -----------------------------------------------------------------
    Charge (ESU x 10^10)
                 4.8032
    Dipole Moment (Debye)
         X       0.1525      Y      -0.0000      Z       1.0439
       Tot       1.0550
    Quadrupole Moments (Debye-Ang)
        XX     -14.1205     XY       0.0000     YY     -14.2747
        XZ       0.9554     YZ       0.0000     ZZ      -8.4434

 Total job time:  12.36s(wall), 97.31s(cpu)
        *  Thank you very much for using Q-Chem.  Have a nice day.  *
