 Q-Chem 5.1, Q-Chem, Inc., Pleasanton, CA (2018)
 Q-Chem 5.1.1 for Intel X86 EM64T Linux

User input:
--------------------------------------------------------------
$molecule
READ ./zmat.inp
$end

$rem
mem_total               230000
mem_static              2048
job_type                optimization
basis                   6-31g**
method                  b3lyp
symmetry                false
sym_ignore              true
geom_opt_max_cycles     500
$end
--------------------------------------------------------------

   11     -94.5203473219      1.81e-09  Convergence criterion met
 Total energy in the final basis set =      -94.5203473219
   10     -94.5621431217      1.15e-09  Convergence criterion met
 Total energy in the final basis set =      -94.5621431217
    9     -94.5728356112      8.27e-09  Convergence criterion met
 Total energy in the final basis set =      -94.5728356112
    9     -94.5737694416      5.27e-09  Convergence criterion met
 Total energy in the final basis set =      -94.5737694416
    8     -94.5738412483      8.50e-09  Convergence criterion met
 Total energy in the final basis set =      -94.5738412483
    8     -94.5738477469      4.04e-09  Convergence criterion met
 Total energy in the final basis set =      -94.5738477469

             Standard Nuclear Orientation (Angstroms)
    I     Atom           X                Y                Z
 ----------------------------------------------------------------
    1      C       0.5011056374    -0.1339404475     0.0000000000
    2      N       1.8162249799    -0.0867443204     0.0000000000
    3      H       2.4128392469     0.7458222366     0.0000000000
    4      H       2.3429640717    -0.9550737105     0.0000000000
    5      H       0.1695001636     0.9299362418     0.0000000000
 ----------------------------------------------------------------

    7     -94.5738481716      4.38e-09  Convergence criterion met
 Total energy in the final basis set =      -94.5738481716
 Final energy is   -94.5738481716491
 **  OPTIMIZATION CONVERGED  **

                    Orbital Energies (a.u.)
 --------------------------------------------------------------

 Alpha MOs
 -- Occupied --
-14.388 -10.189  -0.933  -0.637  -0.543  -0.415  -0.347  -0.194

          Ground-State Mulliken Net Atomic Charges

     Atom                 Charge (a.u.)
  ----------------------------------------
      1 C                    -0.100747
      2 N                    -0.489537
      3 H                     0.251695
      4 H                     0.285409
      5 H                     0.053179
  ----------------------------------------
  Sum of atomic charges =     0.000000

                    Cartesian Multipole Moments
 -----------------------------------------------------------------
    Charge (ESU x 10^10)
                 0.0000
    Dipole Moment (Debye)
         X       3.1066      Y       1.2453      Z       0.0000
       Tot       3.3469
    Quadrupole Moments (Debye-Ang)
        XX      -4.9822     XY      -0.5857     YY     -11.9750
        XZ       0.0000     YZ      -0.0000     ZZ     -13.2971

 Total job time:  4.81s(wall), 37.68s(cpu)
        *  Thank you very much for using Q-Chem.  Have a nice day.  *
