 Q-Chem 5.1, Q-Chem, Inc., Pleasanton, CA (2018)
 Q-Chem 5.1.1 for Intel X86 EM64T Linux

User input:
--------------------------------------------------------------
$molecule
READ ./zmat.inp
$end

$rem
mem_total               230000
mem_static              2048
job_type                optimization
basis                   6-31g**
method                  b3lyp
symmetry                false
sym_ignore              true
geom_opt_max_cycles     500
$end
--------------------------------------------------------------

   13    -178.9411333234      2.86e-09  Convergence criterion met
 Total energy in the final basis set =     -178.9411333234
   11    -178.9698787388      1.99e-09  Convergence criterion met
 Total energy in the final basis set =     -178.9698787388
   11    -178.9976612109      1.48e-09  Convergence criterion met
 Total energy in the final basis set =     -178.9976612109
   10    -179.0217317364      9.58e-09  Convergence criterion met
 Total energy in the final basis set =     -179.0217317364
   10    -179.0398265139      9.52e-09  Convergence criterion met
 Total energy in the final basis set =     -179.0398265139
   10    -179.0503530494      4.47e-09  Convergence criterion met
 Total energy in the final basis set =     -179.0503530494
   10    -179.0545544881      2.90e-09  Convergence criterion met
 Total energy in the final basis set =     -179.0545544881
   10    -179.0560925012      1.27e-09  Convergence criterion met
 Total energy in the final basis set =     -179.0560925012
   10    -179.0571079079      2.09e-09  Convergence criterion met
 Total energy in the final basis set =     -179.0571079079
    9    -179.0577163056      5.39e-09  Convergence criterion met
 Total energy in the final basis set =     -179.0577163056
    9    -179.0578120626      3.81e-09  Convergence criterion met
 Total energy in the final basis set =     -179.0578120626
    8    -179.0578211815      4.77e-09  Convergence criterion met
 Total energy in the final basis set =     -179.0578211815

             Standard Nuclear Orientation (Angstroms)
    I     Atom           X                Y                Z
 ----------------------------------------------------------------
    1      C       0.2247413356     0.0000000000    -0.0571147723
    2      C       0.2685058830     0.0000000000     1.4758515809
    3      H       1.2528488793     0.0000000000    -0.4287957768
    4      F       1.5890076710     0.0000000000     1.9239712246
    5      H      -0.2780064541    -0.8852872150    -0.4559492937
    6      H      -0.2780064541     0.8852872150    -0.4559492937
    7      H      -0.2220428368     0.8869975461     1.8937228010
    8      H      -0.2220428368    -0.8869975461     1.8937228010
 ----------------------------------------------------------------

    8    -179.0578226444      2.96e-09  Convergence criterion met
 Total energy in the final basis set =     -179.0578226444
 Final energy is   -179.057822644431
 **  OPTIMIZATION CONVERGED  **

                    Orbital Energies (a.u.)
 --------------------------------------------------------------

 Alpha MOs
 -- Occupied --
-24.660 -10.257 -10.183  -1.166  -0.755  -0.626  -0.484  -0.482
 -0.439  -0.392  -0.384  -0.325  -0.317

          Ground-State Mulliken Net Atomic Charges

     Atom                 Charge (a.u.)
  ----------------------------------------
      1 C                    -0.367246
      2 C                     0.140211
      3 H                     0.138214
      4 F                    -0.329620
      5 H                     0.115516
      6 H                     0.115516
      7 H                     0.093704
      8 H                     0.093704
  ----------------------------------------
  Sum of atomic charges =    -0.000000

                    Cartesian Multipole Moments
 -----------------------------------------------------------------
    Charge (ESU x 10^10)
                -0.0000
    Dipole Moment (Debye)
         X      -1.5376      Y      -0.0000      Z      -0.7659
       Tot       1.7178
    Quadrupole Moments (Debye-Ang)
        XX     -21.1784     XY      -0.0000     YY     -18.0308
        XZ      -3.4309     YZ      -0.0000     ZZ     -20.5740

 Total job time:  12.65s(wall), 99.88s(cpu)
        *  Thank you very much for using Q-Chem.  Have a nice day.  *
