 Q-Chem 5.1, Q-Chem, Inc., Pleasanton, CA (2018)
 Q-Chem 5.1.1 for Intel X86 EM64T Linux

User input:
--------------------------------------------------------------
$molecule
READ ./zmat.inp
$end

$rem
mem_total               230000
mem_static              2048
job_type                optimization
basis                   6-31g**
method                  b3lyp
symmetry                false
sym_ignore              true
geom_opt_max_cycles     500
$end
--------------------------------------------------------------

   12    -296.2705681220      2.25e-09  Convergence criterion met
 Total energy in the final basis set =     -296.2705681220
   11    -296.3022303469      2.13e-09  Convergence criterion met
 Total energy in the final basis set =     -296.3022303469
   11    -296.3164814465      2.95e-09  Convergence criterion met
 Total energy in the final basis set =     -296.3164814465
   10    -296.3230354036      9.25e-09  Convergence criterion met
 Total energy in the final basis set =     -296.3230354036
   10    -296.3238412170      2.93e-09  Convergence criterion met
 Total energy in the final basis set =     -296.3238412170
    9    -296.3238934225      5.72e-09  Convergence criterion met
 Total energy in the final basis set =     -296.3238934225
    8    -296.3238966626      5.73e-09  Convergence criterion met
 Total energy in the final basis set =     -296.3238966626

             Standard Nuclear Orientation (Angstroms)
    I     Atom           X                Y                Z
 ----------------------------------------------------------------
    1      N       0.0379918201     0.0000000000    -0.0627697710
    2      N       0.0379918221     0.0000000000     1.2627697674
    3      C       1.2340504882     0.0000000000    -0.6656322792
    4      C       1.2340504890     0.0000000000     1.8656322808
    5      N       2.4300856769     0.0000000000    -0.0628632564
    6      N       2.4300856765     0.0000000000     1.2628632550
    7      H       1.2342168150     0.0000000000    -1.7513140069
    8      H       1.2342168153     0.0000000000     2.9513140103
 ----------------------------------------------------------------

    8    -296.3238973856      5.55e-09  Convergence criterion met
 Total energy in the final basis set =     -296.3238973856
 Final energy is   -296.323897385587
 **  OPTIMIZATION CONVERGED  **

                    Orbital Energies (a.u.)
 --------------------------------------------------------------

 Alpha MOs
 -- Occupied --
-14.418 -14.418 -14.418 -14.418 -10.293 -10.293  -1.104  -1.018
 -0.898  -0.768  -0.725  -0.600  -0.545  -0.517  -0.494  -0.391
 -0.374  -0.360  -0.348  -0.339  -0.250

          Ground-State Mulliken Net Atomic Charges

     Atom                 Charge (a.u.)
  ----------------------------------------
      1 N                    -0.205400
      2 N                    -0.205400
      3 C                     0.255541
      4 C                     0.255541
      5 N                    -0.205417
      6 N                    -0.205417
      7 H                     0.155277
      8 H                     0.155277
  ----------------------------------------
  Sum of atomic charges =     0.000000

                    Cartesian Multipole Moments
 -----------------------------------------------------------------
    Charge (ESU x 10^10)
                -0.0000
    Dipole Moment (Debye)
         X      -0.0001      Y      -0.0000      Z       0.0000
       Tot       0.0001
    Quadrupole Moments (Debye-Ang)
        XX     -43.3271     XY       0.0000     YY     -32.2865
        XZ      -0.0001     YZ      -0.0000     ZZ     -27.8974

 Total job time:  11.83s(wall), 93.71s(cpu)
        *  Thank you very much for using Q-Chem.  Have a nice day.  *
