 Q-Chem 5.1, Q-Chem, Inc., Pleasanton, CA (2018)
 Q-Chem 5.1.1 for Intel X86 EM64T Linux

User input:
--------------------------------------------------------------
$molecule
READ ./zmat.inp
$end

$rem
mem_total               230000
mem_static              2048
job_type                optimization
basis                   6-31g**
method                  b3lyp
symmetry                false
sym_ignore              true
geom_opt_max_cycles     500
$end
--------------------------------------------------------------

   12     -94.1408919947      4.88e-09  Convergence criterion met
 Total energy in the final basis set =      -94.1408919947
   11     -94.3915008885      1.97e-09  Convergence criterion met
 Total energy in the final basis set =      -94.3915008885
   11     -94.4912229869      3.91e-09  Convergence criterion met
 Total energy in the final basis set =      -94.4912229869
   10     -94.5358211780      4.07e-09  Convergence criterion met
 Total energy in the final basis set =      -94.5358211780
   10     -94.5688742891      2.43e-09  Convergence criterion met
 Total energy in the final basis set =      -94.5688742891
   10     -94.5900977754      2.00e-09  Convergence criterion met
 Total energy in the final basis set =      -94.5900977754
   10     -94.5994747673      2.71e-09  Convergence criterion met
 Total energy in the final basis set =      -94.5994747673
   10     -94.6009451803      1.28e-09  Convergence criterion met
 Total energy in the final basis set =      -94.6009451803
    9     -94.6020125999      5.41e-09  Convergence criterion met
 Total energy in the final basis set =      -94.6020125999
    9     -94.6023999327      2.95e-09  Convergence criterion met
 Total energy in the final basis set =      -94.6023999327
    9     -94.6028022012      3.45e-09  Convergence criterion met
 Total energy in the final basis set =      -94.6028022012
    9     -94.6029212143      1.34e-09  Convergence criterion met
 Total energy in the final basis set =      -94.6029212143
    8     -94.6029384080      5.08e-09  Convergence criterion met
 Total energy in the final basis set =      -94.6029384080

             Standard Nuclear Orientation (Angstroms)
    I     Atom           X                Y                Z
 ----------------------------------------------------------------
    1      C       0.7204472932     0.1190360828     0.0000000000
    2      N       1.8751789045     0.0436212957     0.0000000000
    3      H       5.5517096728     0.4421005202     0.0000000000
    4      H       5.4417140877    -0.2921981763     0.0000000000
    5      H      -0.3464158586     0.1874402777     0.0000000000
 ----------------------------------------------------------------

    7     -94.6029388881      3.42e-09  Convergence criterion met
 Total energy in the final basis set =      -94.6029388881
 Final energy is   -94.6029388880556
 **  OPTIMIZATION CONVERGED  **

                    Orbital Energies (a.u.)
 --------------------------------------------------------------

 Alpha MOs
 -- Occupied --
-14.360 -10.246  -0.920  -0.607  -0.415  -0.380  -0.359  -0.359

          Ground-State Mulliken Net Atomic Charges

     Atom                 Charge (a.u.)
  ----------------------------------------
      1 C                     0.159661
      2 N                    -0.368322
      3 H                    -0.004460
      4 H                     0.004359
      5 H                     0.208763
  ----------------------------------------
  Sum of atomic charges =     0.000000

                    Cartesian Multipole Moments
 -----------------------------------------------------------------
    Charge (ESU x 10^10)
                 0.0000
    Dipole Moment (Debye)
         X      -2.8901      Y       0.1768      Z       0.0000
       Tot       2.8955
    Quadrupole Moments (Debye-Ang)
        XX     -18.7091     XY      -0.1216     YY     -12.8656
        XZ       0.0000     YZ      -0.0000     ZZ     -13.4125

 Total job time:  9.58s(wall), 75.21s(cpu)
        *  Thank you very much for using Q-Chem.  Have a nice day.  *
