 Q-Chem 5.1, Q-Chem, Inc., Pleasanton, CA (2018)
 Q-Chem 5.1.1 for Intel X86 EM64T Linux

User input:
--------------------------------------------------------------
$molecule
READ ./zmat.inp
$end

$rem
mem_total               230000
mem_static              2048
job_type                optimization
basis                   6-31g**
method                  b3lyp
symmetry                false
sym_ignore              true
geom_opt_max_cycles     500
$end
--------------------------------------------------------------

   16    -153.6929367235      1.56e-09  Convergence criterion met
 Total energy in the final basis set =     -153.6929367235
   11    -153.7149309280      7.44e-09  Convergence criterion met
 Total energy in the final basis set =     -153.7149309280
   11    -153.7326669205      5.29e-09  Convergence criterion met
 Total energy in the final basis set =     -153.7326669205
   11    -153.7480804614      3.47e-09  Convergence criterion met
 Total energy in the final basis set =     -153.7480804614
   11    -153.7619444567      2.74e-09  Convergence criterion met
 Total energy in the final basis set =     -153.7619444567
   10    -153.7743928581      8.21e-09  Convergence criterion met
 Total energy in the final basis set =     -153.7743928581
   10    -153.7854312402      6.14e-09  Convergence criterion met
 Total energy in the final basis set =     -153.7854312402
   10    -153.7950646737      4.87e-09  Convergence criterion met
   10    -153.8140333006      2.56e-09  Convergence criterion met
 Total energy in the final basis set =     -153.8140333006
   10    -153.8159201425      2.87e-09  Convergence criterion met
 Total energy in the final basis set =     -153.8159201425
    9    -153.8159987774      4.66e-09  Convergence criterion met
 Total energy in the final basis set =     -153.8159987774
    9    -153.8160305430      2.62e-09  Convergence criterion met
 Total energy in the final basis set =     -153.8160305430
    9    -153.8160579652      5.65e-09  Convergence criterion met
 Total energy in the final basis set =     -153.8160579652
    9    -153.8160625274      2.29e-09  Convergence criterion met
 Total energy in the final basis set =     -153.8160625274

             Standard Nuclear Orientation (Angstroms)
    I     Atom           X                Y                Z
 ----------------------------------------------------------------
    1      C      -0.2313224703     0.0176263242     0.1095042033
    2      C       0.0039587098     0.2106834881     1.4080550121
    3      O       1.1269066989    -0.1260130758     2.1009612425
    4      H       0.4941186004    -0.4525576509    -0.5493704521
    5      H      -1.1717258526     0.3332227035    -0.3242950950
    6      H      -0.7195085451     0.6803287065     2.0684565030
    7      H       1.7541667363    -0.5445346640     1.4940242695
 ----------------------------------------------------------------

    8    -153.8160636013      7.10e-09  Convergence criterion met
 Total energy in the final basis set =     -153.8160636013
 Final energy is   -153.816063601311
 **  OPTIMIZATION CONVERGED  **

                    Orbital Energies (a.u.)
 --------------------------------------------------------------

 Alpha MOs
 -- Occupied --
-19.179 -10.242 -10.169  -1.056  -0.745  -0.616  -0.492  -0.476
 -0.385  -0.382  -0.364  -0.229

          Ground-State Mulliken Net Atomic Charges

     Atom                 Charge (a.u.)
  ----------------------------------------
      1 C                    -0.298693
      2 C                     0.186657
      3 O                    -0.498310
      4 H                     0.082296
      5 H                     0.102421
      6 H                     0.109801
      7 H                     0.315829
  ----------------------------------------
  Sum of atomic charges =    -0.000000

                    Cartesian Multipole Moments
 -----------------------------------------------------------------
    Charge (ESU x 10^10)
                -0.0000
    Dipole Moment (Debye)
         X       0.3751      Y      -0.3610      Z      -0.8319
       Tot       0.9814
    Quadrupole Moments (Debye-Ang)
        XX     -15.3612     XY      -2.4816     YY     -18.9576
        XZ      -1.3396     YZ       0.3592     ZZ     -21.5511

 Total job time:  15.73s(wall), 124.03s(cpu)
        *  Thank you very much for using Q-Chem.  Have a nice day.  *
