 Q-Chem 5.1, Q-Chem, Inc., Pleasanton, CA (2018)
 Q-Chem 5.1.1 for Intel X86 EM64T Linux

User input:
--------------------------------------------------------------
$molecule
READ ./zmat.inp
$end

$rem
mem_total               230000
mem_static              2048
job_type                optimization
basis                   6-31g**
method                  b3lyp
symmetry                false
sym_ignore              true
geom_opt_max_cycles     500
$end
--------------------------------------------------------------

   10     -94.5690505643      2.41e-09  Convergence criterion met
 Total energy in the final basis set =      -94.5690505643
    9     -94.5947957942      1.32e-09  Convergence criterion met
 Total energy in the final basis set =      -94.5947957942
    9     -94.6011305395      3.95e-10  Convergence criterion met
 Total energy in the final basis set =      -94.6011305395
    7     -94.6021675157      6.93e-09  Convergence criterion met
 Total energy in the final basis set =      -94.6021675157
    7     -94.6023513544      4.52e-09  Convergence criterion met
 Total energy in the final basis set =      -94.6023513544
    7     -94.6024335792      4.25e-09  Convergence criterion met
 Total energy in the final basis set =      -94.6024335792
    7     -94.6025663811      8.18e-09  Convergence criterion met
 Total energy in the final basis set =      -94.6025663811
    7     -94.6027056681      1.87e-09  Convergence criterion met
    5     -94.6030862217      9.01e-09  Convergence criterion met
 Total energy in the final basis set =      -94.6030862217
    5     -94.6030880479      4.98e-09  Convergence criterion met
 Total energy in the final basis set =      -94.6030880479
    6     -94.6030899373      1.50e-09  Convergence criterion met
 Total energy in the final basis set =      -94.6030899373
    6     -94.6030950459      1.93e-09  Convergence criterion met
 Total energy in the final basis set =      -94.6030950459
    6     -94.6030970543      8.95e-10  Convergence criterion met
 Total energy in the final basis set =      -94.6030970543
    5     -94.6030982161      1.65e-09  Convergence criterion met
 Total energy in the final basis set =      -94.6030982161

             Standard Nuclear Orientation (Angstroms)
    I     Atom           X                Y                Z
 ----------------------------------------------------------------
    1      C       0.9155415874     0.0000000000     0.0000000000
    2      N      -0.2416176020     0.0000000000     0.0000000000
    3      H       1.9846695062     0.0000000000     0.0000000000
    4      H      -5.5992967458    -0.3713592245     0.0000000000
    5      H      -5.5992967458     0.3713592245     0.0000000000
 ----------------------------------------------------------------

    5     -94.6030989905      2.94e-09  Convergence criterion met
 Total energy in the final basis set =      -94.6030989905
 Final energy is   -94.6030989905294
 **  OPTIMIZATION CONVERGED  **

                    Orbital Energies (a.u.)
 --------------------------------------------------------------

 Alpha MOs
 -- Occupied --
-14.360 -10.246  -0.920  -0.608  -0.423  -0.380  -0.359  -0.359

          Ground-State Mulliken Net Atomic Charges

     Atom                 Charge (a.u.)
  ----------------------------------------
      1 C                     0.159314
      2 N                    -0.368135
      3 H                     0.208820
      4 H                     0.000000
      5 H                     0.000000
  ----------------------------------------
  Sum of atomic charges =     0.000000

                    Cartesian Multipole Moments
 -----------------------------------------------------------------
    Charge (ESU x 10^10)
                 0.0000
    Dipole Moment (Debye)
         X       2.8944      Y       0.0000      Z       0.0000
       Tot       2.8944
    Quadrupole Moments (Debye-Ang)
        XX      -9.2284     XY      -0.0000     YY     -12.8917
        XZ       0.0000     YZ      -0.0000     ZZ     -13.4130

 Total job time:  17.57s(wall), 138.33s(cpu)
        *  Thank you very much for using Q-Chem.  Have a nice day.  *
