 Q-Chem 5.1, Q-Chem, Inc., Pleasanton, CA (2018)
 Q-Chem 5.1.1 for Intel X86 EM64T Linux

User input:
--------------------------------------------------------------
$molecule
READ ./zmat.inp
$end

$rem
mem_total               230000
mem_static              2048
job_type                optimization
basis                   6-31g**
method                  b3lyp
symmetry                false
sym_ignore              true
geom_opt_max_cycles     500
$end
--------------------------------------------------------------

   12    -170.1455433022      1.72e-09  Convergence criterion met
 Total energy in the final basis set =     -170.1455433022
   11    -170.1565470195      1.17e-09  Convergence criterion met
 Total energy in the final basis set =     -170.1565470195
   10    -170.1639072162      4.65e-09  Convergence criterion met
 Total energy in the final basis set =     -170.1639072162
   10    -170.1713364645      7.09e-09  Convergence criterion met
 Total energy in the final basis set =     -170.1713364645
   10    -170.1787464193      9.10e-09  Convergence criterion met
 Total energy in the final basis set =     -170.1787464193
   10    -170.1859079484      9.00e-09  Convergence criterion met
 Total energy in the final basis set =     -170.1859079484
   11    -170.1924343625      1.07e-09  Convergence criterion met
 Total energy in the final basis set =     -170.1924343625
   11    -170.1967460439      9.45e-10  Convergence criterion met
 Total energy in the final basis set =     -170.1967460439
   11    -170.1963178905      2.52e-09  Convergence criterion met
 Total energy in the final basis set =     -170.1963178905
   11    -170.2028323888      1.15e-09  Convergence criterion met
 Total energy in the final basis set =     -170.2028323888
   10    -170.2039966302      6.39e-09  Convergence criterion met
 Total energy in the final basis set =     -170.2039966302
   10    -170.2042969265      4.76e-09  Convergence criterion met
 Total energy in the final basis set =     -170.2042969265
    9    -170.2043219002      2.31e-09  Convergence criterion met
 Total energy in the final basis set =     -170.2043219002

             Standard Nuclear Orientation (Angstroms)
    I     Atom           X                Y                Z
 ----------------------------------------------------------------
    1      N       0.0427369715     0.0000000000     0.0555624588
    2      C      -0.0599045238     0.0000000000     1.6342807250
    3      O       0.9392806794     0.0000000000     2.2501495927
    4      H       1.0397773081     0.0000000000    -0.2002392635
    5      H      -1.1072942495     0.0000000000     1.9602503699
    6      H      -0.4056474578    -0.8318050080    -0.3532335389
    7      H      -0.4056474578     0.8318050080    -0.3532335390
 ----------------------------------------------------------------

    9    -170.2043246642      7.24e-10  Convergence criterion met
 Total energy in the final basis set =     -170.2043246642
 Final energy is   -170.204324664152
 **  OPTIMIZATION CONVERGED  **

                    Orbital Energies (a.u.)
 --------------------------------------------------------------

 Alpha MOs
 -- Occupied --
-19.430 -14.695 -10.575  -1.340  -1.221  -0.890  -0.820  -0.816
 -0.751  -0.700  -0.652  -0.545

          Ground-State Mulliken Net Atomic Charges

     Atom                 Charge (a.u.)
  ----------------------------------------
      1 N                    -0.592742
      2 C                     0.412016
      3 O                    -0.214906
      4 H                     0.388315
      5 H                     0.233735
      6 H                     0.386791
      7 H                     0.386791
  ----------------------------------------
  Sum of atomic charges =     1.000000

                    Cartesian Multipole Moments
 -----------------------------------------------------------------
    Charge (ESU x 10^10)
                 4.8032
    Dipole Moment (Debye)
         X      -1.4801      Y       0.0000      Z       0.7807
       Tot       1.6734
    Quadrupole Moments (Debye-Ang)
        XX     -14.1172     XY      -0.0000     YY     -13.9288
        XZ      -3.6457     YZ      -0.0000     ZZ     -13.5782

 Total job time:  11.62s(wall), 91.39s(cpu)
        *  Thank you very much for using Q-Chem.  Have a nice day.  *
