 Q-Chem 5.1, Q-Chem, Inc., Pleasanton, CA (2018)
 Q-Chem 5.1.1 for Intel X86 EM64T Linux

User input:
--------------------------------------------------------------
$molecule
READ ./zmat.inp
$end

$rem
mem_total               230000
mem_static              2048
job_type                optimization
basis                   6-31g**
method                  b3lyp
symmetry                false
sym_ignore              true
geom_opt_max_cycles     500
$end
--------------------------------------------------------------

   11    -155.9959965015      5.35e-09  Convergence criterion met
 Total energy in the final basis set =     -155.9959965015
   11    -156.0006137351      3.04e-09  Convergence criterion met
 Total energy in the final basis set =     -156.0006137351
   10    -156.0014524246      4.17e-09  Convergence criterion met
 Total energy in the final basis set =     -156.0014524246
   10    -156.0016374303      3.74e-09  Convergence criterion met
 Total energy in the final basis set =     -156.0016374303
    9    -156.0016426364      2.84e-09  Convergence criterion met
 Total energy in the final basis set =     -156.0016426364

             Standard Nuclear Orientation (Angstroms)
    I     Atom           X                Y                Z
 ----------------------------------------------------------------
    1      C       0.0173170147     0.1112519030     0.0063614622
    2      C       0.0218268875     0.1105856183     1.4636633197
    3      C       1.1050716923    -0.0805772125    -0.7522591115
    4      C      -1.0659724500     0.3023384902     2.2222446534
    5      H      -0.9466286097     0.2815308287    -0.4730142911
    6      H       0.9857427379    -0.0597406116     1.9430765876
    7      H       1.0549522369    -0.0716997628    -1.8360475537
    8      H       2.0828197660    -0.2528079141    -0.3093589170
    9      H      -1.0159338269     0.2932629680     3.3060351600
   10      H      -2.0436830074     0.4746618463     1.7792986903
 ----------------------------------------------------------------

    8    -156.0016429607      2.66e-09  Convergence criterion met
 Total energy in the final basis set =     -156.0016429607
 Final energy is   -156.001642960691
 **  OPTIMIZATION CONVERGED  **

                    Orbital Energies (a.u.)
 --------------------------------------------------------------

 Alpha MOs
 -- Occupied --
-10.193 -10.192 -10.184 -10.184  -0.802  -0.730  -0.603  -0.550
 -0.463  -0.459  -0.391  -0.384  -0.343  -0.320  -0.230

          Ground-State Mulliken Net Atomic Charges

     Atom                 Charge (a.u.)
  ----------------------------------------
      1 C                    -0.028790
      2 C                    -0.028787
      3 C                    -0.252746
      4 C                    -0.252744
      5 H                     0.082115
      6 H                     0.082116
      7 H                     0.101725
      8 H                     0.097693
      9 H                     0.101725
     10 H                     0.097693
  ----------------------------------------
  Sum of atomic charges =     0.000000

                    Cartesian Multipole Moments
 -----------------------------------------------------------------
    Charge (ESU x 10^10)
                 0.0000
    Dipole Moment (Debye)
         X      -0.0000      Y      -0.0001      Z       0.0000
       Tot       0.0001
    Quadrupole Moments (Debye-Ang)
        XX     -22.8785     XY      -0.8789     YY     -27.7096
        XZ       0.0946     YZ      -0.0180     ZZ     -22.8265

 Total job time:  7.62s(wall), 60.25s(cpu)
        *  Thank you very much for using Q-Chem.  Have a nice day.  *
