 Q-Chem 5.1, Q-Chem, Inc., Pleasanton, CA (2018)
 Q-Chem 5.1.1 for Intel X86 EM64T Linux

User input:
--------------------------------------------------------------
$molecule
READ ./zmat.inp
$end

$rem
mem_total               230000
mem_static              2048
job_type                optimization
basis                   6-31g**
method                  b3lyp
symmetry                false
sym_ignore              true
geom_opt_max_cycles     500
$end
--------------------------------------------------------------

   11    -155.9795390805      1.76e-09  Convergence criterion met
 Total energy in the final basis set =     -155.9795390805
    9    -155.9893180829      4.33e-09  Convergence criterion met
 Total energy in the final basis set =     -155.9893180829
    9    -155.9941722919      5.49e-09  Convergence criterion met
 Total energy in the final basis set =     -155.9941722919
    9    -155.9958532260      3.71e-09  Convergence criterion met
 Total energy in the final basis set =     -155.9958532260
    9    -155.9959226732      1.41e-09  Convergence criterion met
 Total energy in the final basis set =     -155.9959226732
    9    -155.9959617352      1.95e-09  Convergence criterion met
 Total energy in the final basis set =     -155.9959617352
    9    -155.9960024244      3.68e-09  Convergence criterion met
 Total energy in the final basis set =     -155.9960024244
    8    -155.9960165941      5.71e-09  Convergence criterion met
 Total energy in the final basis set =     -155.9960165941
    7    -155.9960207136      9.23e-09  Convergence criterion met
 Total energy in the final basis set =     -155.9960207136

             Standard Nuclear Orientation (Angstroms)
    I     Atom           X                Y                Z
 ----------------------------------------------------------------
    1      C       0.0456230285    -0.1054076979     0.0077437266
    2      C       0.0456230284     0.1054076969     1.4622562734
    3      C       1.0920698402     0.0658306739    -0.8093502943
    4      C       1.0920698403    -0.0658306739     2.2793502943
    5      H      -0.9081441726    -0.4073686958    -0.4249979877
    6      H      -0.9081441724     0.4073686961     1.8949979875
    7      H       1.0159130359    -0.1299253252    -1.8742076403
    8      H       2.0522995728     0.4185329704    -0.4433037200
    9      H       1.0159130360     0.1299253261     3.3442076402
   10      H       2.0522995729    -0.4185329707     1.9133037203
 ----------------------------------------------------------------

    7    -155.9960207584      1.90e-09  Convergence criterion met
 Total energy in the final basis set =     -155.9960207584
 Final energy is   -155.996020758369
 **  OPTIMIZATION CONVERGED  **

                    Orbital Energies (a.u.)
 --------------------------------------------------------------

 Alpha MOs
 -- Occupied --
-10.192 -10.192 -10.183 -10.183  -0.800  -0.724  -0.615  -0.527
 -0.486  -0.433  -0.420  -0.365  -0.345  -0.307  -0.232

          Ground-State Mulliken Net Atomic Charges

     Atom                 Charge (a.u.)
  ----------------------------------------
      1 C                    -0.053235
      2 C                    -0.053235
      3 C                    -0.233962
      4 C                    -0.233962
      5 H                     0.087651
      6 H                     0.087651
      7 H                     0.099919
      8 H                     0.099627
      9 H                     0.099919
     10 H                     0.099627
  ----------------------------------------
  Sum of atomic charges =     0.000000

                    Cartesian Multipole Moments
 -----------------------------------------------------------------
    Charge (ESU x 10^10)
                -0.0000
    Dipole Moment (Debye)
         X      -0.1171      Y       0.0000      Z       0.0000
       Tot       0.1171
    Quadrupole Moments (Debye-Ang)
        XX     -22.9780     XY      -0.0000     YY     -27.3555
        XZ      -0.0860     YZ       0.6743     ZZ     -22.9750

 Total job time:  12.24s(wall), 96.80s(cpu)
        *  Thank you very much for using Q-Chem.  Have a nice day.  *
