 Q-Chem 5.1, Q-Chem, Inc., Pleasanton, CA (2018)
 Q-Chem 5.1.1 for Intel X86 EM64T Linux

User input:
--------------------------------------------------------------
$molecule
0 1
H    0.0000000    0.0000000    0.0000000
C    0.0000000    1.0000000    0.0000000
N    0.0000000    2.0000000    0.0000000
$end

$rem
mem_total               230000
mem_static              2048
job_type                optimization
basis                   aug-cc-pvtz
method                  b3lyp
symmetry                false
sym_ignore              true
geom_opt_max_cycles     500
$end
--------------------------------------------------------------

   10     -93.3916149818      2.30e-09  Convergence criterion met
 Total energy in the final basis set =      -93.3916149818
   10     -93.4249993953      1.03e-09  Convergence criterion met
 Total energy in the final basis set =      -93.4249993953
    9     -93.4600299226      1.42e-09  Convergence criterion met
 Total energy in the final basis set =      -93.4600299226
    8     -93.4627169812      6.59e-09  Convergence criterion met
 Total energy in the final basis set =      -93.4627169812
    8     -93.4627583123      9.65e-10  Convergence criterion met
 Total energy in the final basis set =      -93.4627583123

             Standard Nuclear Orientation (Angstroms)
    I     Atom           X                Y                Z
 ----------------------------------------------------------------
    1      H       0.0000000000    -0.0922966514     0.0000000000
    2      C       0.0000000000     0.9731580381     0.0000000000
    3      N       0.0000000000     2.1191386133     0.0000000000
 ----------------------------------------------------------------

    6     -93.4627586770      9.60e-09  Convergence criterion met
 Total energy in the final basis set =      -93.4627586770
 Final energy is   -93.4627586769989
 **  OPTIMIZATION CONVERGED  **

                    Orbital Energies (a.u.)
 --------------------------------------------------------------

 Alpha MOs
 -- Occupied --
-14.347 -10.233  -0.934  -0.616  -0.393  -0.374  -0.374

          Ground-State Mulliken Net Atomic Charges

     Atom                 Charge (a.u.)
  ----------------------------------------
      1 H                     0.612821
      2 C                    -0.334367
      3 N                    -0.278453
  ----------------------------------------
  Sum of atomic charges =    -0.000000

                    Cartesian Multipole Moments
 -----------------------------------------------------------------
    Charge (ESU x 10^10)
                -0.0000
    Dipole Moment (Debye)
         X      -0.0000      Y      -3.0403      Z      -0.0000
       Tot       3.0403
    Quadrupole Moments (Debye-Ang)
        XX     -11.8174     XY       0.0000     YY     -18.8285
        XZ       0.0000     YZ      -0.0000     ZZ     -11.8174

 Total job time:  31.71s(wall), 170.35s(cpu)
        *  Thank you very much for using Q-Chem.  Have a nice day.  *
