 Q-Chem 5.1, Q-Chem, Inc., Pleasanton, CA (2018)
 Q-Chem 5.1.1 for Intel X86 EM64T Linux

User input:
--------------------------------------------------------------
$molecule
READ ./zmat.inp
$end

$rem
mem_total               230000
mem_static              2048
job_type                optimization
basis                   6-31g**
method                  b3lyp
symmetry                false
sym_ignore              true
geom_opt_max_cycles     500
$end
--------------------------------------------------------------

   14    -643.4197602252      3.11e-09  Convergence criterion met
 Total energy in the final basis set =     -643.4197602252
   11    -643.5017164674      3.25e-09  Convergence criterion met
 Total energy in the final basis set =     -643.5017164674
   11    -643.5497955779      3.37e-09  Convergence criterion met
 Total energy in the final basis set =     -643.5497955779
   11    -643.5721021855      3.29e-09  Convergence criterion met
 Total energy in the final basis set =     -643.5721021855
   11    -643.5782447394      2.92e-09  Convergence criterion met
 Total energy in the final basis set =     -643.5782447394
   10    -643.5791730979      6.68e-09  Convergence criterion met
 Total energy in the final basis set =     -643.5791730979
    9    -643.5792107894      4.47e-09  Convergence criterion met
 Total energy in the final basis set =     -643.5792107894
    9    -643.5792156915      2.85e-09  Convergence criterion met
 Total energy in the final basis set =     -643.5792156915
    8    -643.5792165012      8.15e-09  Convergence criterion met
 Total energy in the final basis set =     -643.5792165012

             Standard Nuclear Orientation (Angstroms)
    I     Atom           X                Y                Z
 ----------------------------------------------------------------
    1      P       0.0000000000     0.2140740747    -0.1684919843
    2      O       0.0000000000    -0.0763712122     1.5079908944
    3      O       1.3202472833    -0.2391412885    -0.7132040939
    4      O      -1.3202472833    -0.2391412884    -0.7132040943
    5      O       0.0000000000     1.9153444851    -0.1498510140
    6      H       0.0000000000     0.7425136668     2.0124462878
    7      H       0.0000000000     2.2647257190     0.7464868555
 ----------------------------------------------------------------

    8    -643.5792171865      7.89e-09  Convergence criterion met
 Total energy in the final basis set =     -643.5792171865
 Final energy is   -643.579217186470
 **  OPTIMIZATION CONVERGED  **

                    Orbital Energies (a.u.)
 --------------------------------------------------------------

 Alpha MOs
 -- Occupied --
-76.999 -18.973 -18.973 -18.879 -18.879  -6.444  -4.610  -4.608
 -4.604  -0.858  -0.809  -0.747  -0.707  -0.390  -0.346  -0.258
 -0.200  -0.195  -0.160  -0.145  -0.126  -0.093  -0.092  -0.050
 -0.040

          Ground-State Mulliken Net Atomic Charges

     Atom                 Charge (a.u.)
  ----------------------------------------
      1 P                     1.010617
      2 O                    -0.630312
      3 O                    -0.635082
      4 O                    -0.635082
      5 O                    -0.630317
      6 H                     0.260027
      7 H                     0.260149
  ----------------------------------------
  Sum of atomic charges =    -1.000000

                    Cartesian Multipole Moments
 -----------------------------------------------------------------
    Charge (ESU x 10^10)
                -4.8032
    Dipole Moment (Debye)
         X       0.0000      Y       1.7804      Z       4.1801
       Tot       4.5435
    Quadrupole Moments (Debye-Ang)
        XX     -47.1914     XY       0.0000     YY     -37.4139
        XZ      -0.0000     YZ       5.3249     ZZ     -37.8772

 Total job time:  13.40s(wall), 105.91s(cpu)
        *  Thank you very much for using Q-Chem.  Have a nice day.  *
