 Q-Chem 5.1, Q-Chem, Inc., Pleasanton, CA (2018)
 Q-Chem 5.1.1 for Intel X86 EM64T Linux

User input:
--------------------------------------------------------------
$molecule
READ ./zmat.inp
$end

$rem
mem_total               230000
mem_static              2048
job_type                optimization
basis                   6-31g**
method                  b3lyp
symmetry                false
sym_ignore              true
geom_opt_max_cycles     500
$end
--------------------------------------------------------------

   11     -94.4441305291      8.89e-09  Convergence criterion met
 Total energy in the final basis set =      -94.4441305291
   10     -94.5919012136      2.82e-09  Convergence criterion met
 Total energy in the final basis set =      -94.5919012136
   10     -94.6198706545      2.00e-09  Convergence criterion met
 Total energy in the final basis set =      -94.6198706545
    9     -94.6314508251      7.19e-09  Convergence criterion met
 Total energy in the final basis set =      -94.6314508251
    9     -94.6330724301      1.72e-09  Convergence criterion met
 Total energy in the final basis set =      -94.6330724301
    9     -94.6334337235      2.17e-09  Convergence criterion met
 Total energy in the final basis set =      -94.6334337235
    8     -94.6334535792      4.79e-09  Convergence criterion met
 Total energy in the final basis set =      -94.6334535792

             Standard Nuclear Orientation (Angstroms)
    I     Atom           X                Y                Z
 ----------------------------------------------------------------
    1      C       0.6052311751    -0.0322576379     0.0000000000
    2      N       1.8643275650    -0.1988622733     0.0000000000
    3      H       2.3435353784     0.7084425291     0.0000000000
    4      H      -0.0413170497    -0.9141483727     0.0000000000
    5      H       0.0882229312     0.9368257548     0.0000000000
 ----------------------------------------------------------------

    7     -94.6334543373      5.83e-09  Convergence criterion met
 Total energy in the final basis set =      -94.6334543373
 Final energy is   -94.6334543372900
 **  OPTIMIZATION CONVERGED  **

                    Orbital Energies (a.u.)
 --------------------------------------------------------------

 Alpha MOs
 -- Occupied --
-14.333 -10.235  -0.903  -0.620  -0.500  -0.426  -0.330  -0.268

          Ground-State Mulliken Net Atomic Charges

     Atom                 Charge (a.u.)
  ----------------------------------------
      1 C                    -0.013917
      2 N                    -0.425302
      3 H                     0.233930
      4 H                     0.113710
      5 H                     0.091579
  ----------------------------------------
  Sum of atomic charges =    -0.000000

                    Cartesian Multipole Moments
 -----------------------------------------------------------------
    Charge (ESU x 10^10)
                 0.0000
    Dipole Moment (Debye)
         X      -1.1619      Y       1.5629      Z      -0.0000
       Tot       1.9475
    Quadrupole Moments (Debye-Ang)
        XX     -14.7765     XY       3.9396     YY     -12.2181
        XZ       0.0000     YZ      -0.0000     ZZ     -13.2424

 Total job time:  5.60s(wall), 43.90s(cpu)
        *  Thank you very much for using Q-Chem.  Have a nice day.  *
