 Q-Chem 5.1, Q-Chem, Inc., Pleasanton, CA (2018)
 Q-Chem 5.1.1 for Intel X86 EM64T Linux

User input:
--------------------------------------------------------------
$molecule
READ ./zmat.inp
$end

$rem
mem_total               230000
mem_static              2048
job_type                optimization
basis                   6-31g**
method                  b3lyp
symmetry                false
sym_ignore              true
geom_opt_max_cycles     500
$end
--------------------------------------------------------------

   14    -370.3586118878      2.34e-09  Convergence criterion met
 Total energy in the final basis set =     -370.3586118878
   11    -370.3829087882      5.14e-09  Convergence criterion met
 Total energy in the final basis set =     -370.3829087882
   11    -370.4069316207      3.64e-09  Convergence criterion met
 Total energy in the final basis set =     -370.4069316207
   10    -370.4293523099      9.70e-09  Convergence criterion met
 Total energy in the final basis set =     -370.4293523099
   10    -370.4471720526      9.10e-09  Convergence criterion met
 Total energy in the final basis set =     -370.4471720526
   10    -370.4560232556      6.98e-09  Convergence criterion met
 Total energy in the final basis set =     -370.4560232556
   10    -370.4580053991      9.60e-09  Convergence criterion met
 Total energy in the final basis set =     -370.4580053991
   10    -370.4582334289      3.18e-09  Convergence criterion met
    9    -370.4583938107      6.20e-09  Convergence criterion met
 Total energy in the final basis set =     -370.4583938107
    9    -370.4584076761      3.53e-09  Convergence criterion met
 Total energy in the final basis set =     -370.4584076761
    9    -370.4584163983      3.03e-09  Convergence criterion met
 Total energy in the final basis set =     -370.4584163983
    9    -370.4584239607      4.95e-09  Convergence criterion met
 Total energy in the final basis set =     -370.4584239607
    8    -370.4584266176      5.29e-09  Convergence criterion met
 Total energy in the final basis set =     -370.4584266176
    8    -370.4584276772      4.24e-09  Convergence criterion met
 Total energy in the final basis set =     -370.4584276772

             Standard Nuclear Orientation (Angstroms)
    I     Atom           X                Y                Z
 ----------------------------------------------------------------
    1      C       0.1961400803    -0.0305993748     0.1715733015
    2      C       0.3064210664     0.2092221896     1.6744187276
    3      Si      2.9994007184     0.1571904647     2.9670017854
    4      H       0.3312993949     0.8958491130    -0.3943483791
    5      H       0.9454427420    -0.7495261981    -0.1722237333
    6      H      -0.7910249695    -0.4333957338    -0.0780200258
    7      H      -0.4227819592     0.9369147028     2.0426732387
    8      H       0.1965506650    -0.7108188847     2.2505241689
    9      H       2.9747944480    -1.2219378360     2.3086975358
   10      H       1.2995420892     0.6747482846     1.9029824717
   11      H       2.1494820007    -0.3232088220     4.1419295032
 ----------------------------------------------------------------

    7    -370.4584284222      9.66e-09  Convergence criterion met
 Total energy in the final basis set =     -370.4584284222
 Final energy is   -370.458428422208
 **  OPTIMIZATION CONVERGED  **

                    Orbital Energies (a.u.)
 --------------------------------------------------------------

 Alpha MOs
 -- Occupied --
-66.135 -10.207 -10.191  -5.282  -3.646  -3.638  -3.635  -0.774
 -0.638  -0.506  -0.457  -0.447  -0.388  -0.367  -0.361  -0.318
 -0.228

          Ground-State Mulliken Net Atomic Charges

     Atom                 Charge (a.u.)
  ----------------------------------------
      1 C                    -0.321076
      2 C                    -0.323951
      3 Si                    0.164541
      4 H                     0.117940
      5 H                     0.124861
      6 H                     0.118909
      7 H                     0.131648
      8 H                     0.146831
      9 H                    -0.112181
     10 H                     0.061908
     11 H                    -0.109431
  ----------------------------------------
  Sum of atomic charges =    -0.000000

                    Cartesian Multipole Moments
 -----------------------------------------------------------------
    Charge (ESU x 10^10)
                -0.0000
    Dipole Moment (Debye)
         X      -1.4115      Y      -0.3302      Z      -0.6461
       Tot       1.5870
    Quadrupole Moments (Debye-Ang)
        XX     -33.6500     XY      -2.7382     YY     -31.7190
        XZ      -2.4830     YZ      -1.1948     ZZ     -32.3982

 Total job time:  23.03s(wall), 182.32s(cpu)
        *  Thank you very much for using Q-Chem.  Have a nice day.  *
