 Q-Chem 5.1, Q-Chem, Inc., Pleasanton, CA (2018)
 Q-Chem 5.1.1 for Intel X86 EM64T Linux

User input:
--------------------------------------------------------------
$molecule
READ ./zmat.inp
$end

$rem
mem_total               230000
mem_static              2048
job_type                optimization
basis                   6-31g**
method                  b3lyp
symmetry                false
sym_ignore              true
geom_opt_max_cycles     500
$end
--------------------------------------------------------------

   13    -529.5992948091      5.33e-09  Convergence criterion met
 Total energy in the final basis set =     -529.5992948091
   11    -529.6001735548      4.07e-09  Convergence criterion met
 Total energy in the final basis set =     -529.6001735548
   12    -529.6039853931      2.92e-09  Convergence criterion met
 Total energy in the final basis set =     -529.6039853931
   12    -529.6107054801      2.56e-09  Convergence criterion met
 Total energy in the final basis set =     -529.6107054801
   12    -529.6160993435      3.96e-09  Convergence criterion met
 Total energy in the final basis set =     -529.6160993435
   12    -529.6239557956      1.80e-09  Convergence criterion met
 Total energy in the final basis set =     -529.6239557956
   12    -529.6376698582      2.17e-09  Convergence criterion met
 Total energy in the final basis set =     -529.6376698582
   13    -529.6200884519      1.30e-09  Convergence criterion met
   11    -529.6538759533      1.42e-09  Convergence criterion met
 Total energy in the final basis set =     -529.6538759533
   11    -529.6544497228      4.13e-09  Convergence criterion met
 Total energy in the final basis set =     -529.6544497228
   11    -529.6547054136      2.02e-09  Convergence criterion met
 Total energy in the final basis set =     -529.6547054136
   11    -529.6548843787      2.10e-09  Convergence criterion met
 Total energy in the final basis set =     -529.6548843787
   10    -529.6549236093      3.26e-09  Convergence criterion met
 Total energy in the final basis set =     -529.6549236093
   10    -529.6549436026      4.74e-09  Convergence criterion met
 Total energy in the final basis set =     -529.6549436026

             Standard Nuclear Orientation (Angstroms)
    I     Atom           X                Y                Z
 ----------------------------------------------------------------
    1      H       0.0415951245     0.0000000000     0.0722102715
    2      N      -0.0447483900     0.0000000000     1.0980514873
    3      C       1.0632273960     0.0000000000     1.6757487056
    4      C       2.0669679945     0.0000000000     2.4780000498
    5      S       3.3890578186     0.0000000000     3.3465390439
 ----------------------------------------------------------------

    9    -529.6549447219      6.94e-09  Convergence criterion met
 Total energy in the final basis set =     -529.6549447219
 Final energy is   -529.654944721858
 **  OPTIMIZATION CONVERGED  **

                    Orbital Energies (a.u.)
 --------------------------------------------------------------

 Alpha MOs
 -- Occupied --
-88.914 -14.389 -10.272 -10.269  -7.975  -5.938  -5.938  -5.929
 -0.949  -0.827  -0.717  -0.563  -0.452  -0.408  -0.407  -0.335
 -0.322  -0.212

          Ground-State Mulliken Net Atomic Charges

     Atom                 Charge (a.u.)
  ----------------------------------------
      1 H                     0.271365
      2 N                    -0.563072
      3 C                     0.325671
      4 C                    -0.024285
      5 S                    -0.009680
  ----------------------------------------
  Sum of atomic charges =    -0.000000

                    Cartesian Multipole Moments
 -----------------------------------------------------------------
    Charge (ESU x 10^10)
                 0.0000
    Dipole Moment (Debye)
         X       0.1735      Y       0.0000      Z      -1.7220
       Tot       1.7307
    Quadrupole Moments (Debye-Ang)
        XX     -32.1258     XY       0.0000     YY     -28.3310
        XZ       0.0315     YZ       0.0000     ZZ     -33.4791

 Total job time:  20.75s(wall), 163.48s(cpu)
        *  Thank you very much for using Q-Chem.  Have a nice day.  *
