 Q-Chem 5.1, Q-Chem, Inc., Pleasanton, CA (2018)
 Q-Chem 5.1.1 for Intel X86 EM64T Linux

User input:
--------------------------------------------------------------
$molecule
READ ./zmat.inp
$end

$rem
mem_total               230000
mem_static              2048
job_type                optimization
basis                   6-31g**
method                  b3lyp
symmetry                false
sym_ignore              true
geom_opt_max_cycles     500
$end
--------------------------------------------------------------

   11     -79.6923983388      9.81e-09  Convergence criterion met
 Total energy in the final basis set =      -79.6923983388
   10     -79.7221595929      3.61e-09  Convergence criterion met
 Total energy in the final basis set =      -79.7221595929
   10     -79.7461167158      1.61e-09  Convergence criterion met
 Total energy in the final basis set =      -79.7461167158
    9     -79.7590470804      8.46e-09  Convergence criterion met
 Total energy in the final basis set =      -79.7590470804
    9     -79.7652700545      4.81e-09  Convergence criterion met
 Total energy in the final basis set =      -79.7652700545
    9     -79.7689215155      1.22e-09  Convergence criterion met
 Total energy in the final basis set =      -79.7689215155
    8     -79.7708626502      8.52e-09  Convergence criterion met
 Total energy in the final basis set =      -79.7708626502
    8     -79.7718915867      4.39e-09  Convergence criterion met
    9     -79.7729562055      7.39e-10  Convergence criterion met
 Total energy in the final basis set =      -79.7729562055
    9     -79.7730057422      2.10e-09  Convergence criterion met
 Total energy in the final basis set =      -79.7730057422
    9     -79.7730610158      1.83e-09  Convergence criterion met
 Total energy in the final basis set =      -79.7730610158
    9     -79.7731353802      3.06e-09  Convergence criterion met
 Total energy in the final basis set =      -79.7731353802
    9     -79.7731724210      1.20e-09  Convergence criterion met
 Total energy in the final basis set =      -79.7731724210
    8     -79.7731781194      6.88e-09  Convergence criterion met
 Total energy in the final basis set =      -79.7731781194

             Standard Nuclear Orientation (Angstroms)
    I     Atom           X                Y                Z
 ----------------------------------------------------------------
    1      C      -0.6208806278     0.0000000000     0.1116180806
    2      C      -0.1605289440     0.0000000000     1.3606767300
    3      H       3.0682411609     0.0000000000    -0.9460922781
    4      H       2.4047600761     0.0000000000    -0.6101107243
    5      H      -0.8196538031    -0.9237061939    -0.4249989799
    6      H      -0.8196538030     0.9237061938    -0.4249989801
    7      H       0.0359678579     0.9235679934     1.8984685638
    8      H       0.0359678577    -0.9235679935     1.8984685638
 ----------------------------------------------------------------

    8     -79.7731783964      2.99e-09  Convergence criterion met
 Total energy in the final basis set =      -79.7731783964
 Final energy is   -79.7731783964258
 **  OPTIMIZATION CONVERGED  **

                    Orbital Energies (a.u.)
 --------------------------------------------------------------

 Alpha MOs
 -- Occupied --
-10.188 -10.187  -0.758  -0.579  -0.467  -0.423  -0.418  -0.355
 -0.270

          Ground-State Mulliken Net Atomic Charges

     Atom                 Charge (a.u.)
  ----------------------------------------
      1 C                    -0.202291
      2 C                    -0.202454
      3 H                    -0.020747
      4 H                     0.009441
      5 H                     0.104129
      6 H                     0.104129
      7 H                     0.103897
      8 H                     0.103897
  ----------------------------------------
  Sum of atomic charges =    -0.000000

                    Cartesian Multipole Moments
 -----------------------------------------------------------------
    Charge (ESU x 10^10)
                -0.0000
    Dipole Moment (Debye)
         X      -0.2007      Y      -0.0000      Z       0.0950
       Tot       0.2220
    Quadrupole Moments (Debye-Ang)
        XX     -16.7073     XY       0.0000     YY     -14.1387
        XZ       0.8935     YZ      -0.0000     ZZ     -14.2638

 Total job time:  16.84s(wall), 132.56s(cpu)
        *  Thank you very much for using Q-Chem.  Have a nice day.  *
