 Q-Chem 5.1, Q-Chem, Inc., Pleasanton, CA (2018)
 Q-Chem 5.1.1 for Intel X86 EM64T Linux

User input:
--------------------------------------------------------------
$molecule
READ ./zmat.inp
$end

$rem
mem_total               230000
mem_static              2048
job_type                optimization
basis                   6-31g**
method                  b3lyp
symmetry                false
sym_ignore              true
geom_opt_max_cycles     500
$end
--------------------------------------------------------------

   24    -114.1926611921      1.02e-09  Convergence criterion met
 Total energy in the final basis set =     -114.1926611921
   15    -114.2155715910      7.42e-09  Convergence criterion met
 Total energy in the final basis set =     -114.2155715910
    9    -114.2176439055      1.31e-09  Convergence criterion met
 Total energy in the final basis set =     -114.2176439055
    9    -114.2202387806      2.19e-09  Convergence criterion met
 Total energy in the final basis set =     -114.2202387806
    9    -114.2234053736      1.91e-09  Convergence criterion met
 Total energy in the final basis set =     -114.2234053736
    9    -114.2271433220      4.11e-09  Convergence criterion met
 Total energy in the final basis set =     -114.2271433220
   15    -114.1635328171      1.82e-09  Convergence criterion met
 Total energy in the final basis set =     -114.1635328171
   14    -114.2282111215      8.78e-09  Convergence criterion met
    7    -114.4886584591      8.98e-09  Convergence criterion met
 Total energy in the final basis set =     -114.4886584591
    8    -114.4886596645      1.85e-09  Convergence criterion met
 Total energy in the final basis set =     -114.4886596645
    7    -114.4886605425      1.89e-09  Convergence criterion met
 Total energy in the final basis set =     -114.4886605425
    8    -114.4886624780      1.29e-09  Convergence criterion met
 Total energy in the final basis set =     -114.4886624780
    8    -114.4886631435      1.19e-09  Convergence criterion met
 Total energy in the final basis set =     -114.4886631435
    8    -114.4886636979      6.29e-10  Convergence criterion met
 Total energy in the final basis set =     -114.4886636979

             Standard Nuclear Orientation (Angstroms)
    I     Atom           X                Y                Z
 ----------------------------------------------------------------
    1      C       0.4136690240     0.0000000000     0.2577550187
    2      O      -0.4436409275     0.0000000000     1.0056032713
    3      H       3.3137223485     0.0000000000    -1.9598312145
    4      H       2.7162495550     0.0000000000    -1.5176286907
 ----------------------------------------------------------------

    8    -114.4886640112      5.82e-10  Convergence criterion met
 Total energy in the final basis set =     -114.4886640112
 Final energy is   -114.488664011195
 **  OPTIMIZATION CONVERGED  **

                    Orbital Energies (a.u.)
 --------------------------------------------------------------

 Alpha MOs
 -- Occupied --
-19.261 -10.308  -1.161  -0.573  -0.470  -0.470  -0.426  -0.374

          Ground-State Mulliken Net Atomic Charges

     Atom                 Charge (a.u.)
  ----------------------------------------
      1 C                     0.184229
      2 O                    -0.174767
      3 H                    -0.019563
      4 H                     0.010101
  ----------------------------------------
  Sum of atomic charges =     0.000000

                    Cartesian Multipole Moments
 -----------------------------------------------------------------
    Charge (ESU x 10^10)
                 0.0000
    Dipole Moment (Debye)
         X      -0.1655      Y       0.0000      Z       0.1304
       Tot       0.2107
    Quadrupole Moments (Debye-Ang)
        XX     -13.1975     XY       0.0000     YY     -11.8977
        XZ       1.0254     YZ       0.0000     ZZ     -12.7141

 Total job time:  62.59s(wall), 492.28s(cpu)
        *  Thank you very much for using Q-Chem.  Have a nice day.  *
