 Q-Chem 5.1, Q-Chem, Inc., Pleasanton, CA (2018)
 Q-Chem 5.1.1 for Intel X86 EM64T Linux

User input:
--------------------------------------------------------------
$molecule
READ ./zmat.inp
$end

$rem
mem_total               230000
mem_static              2048
job_type                optimization
basis                   6-31g**
method                  b3lyp
symmetry                false
sym_ignore              true
geom_opt_max_cycles     500
$end
--------------------------------------------------------------

   10     -93.4194582462      1.54e-09  Convergence criterion met
 Total energy in the final basis set =      -93.4194582462
    9     -93.4129245300      7.59e-09  Convergence criterion met
 Total energy in the final basis set =      -93.4129245300
    9     -93.4245717504      9.30e-09  Convergence criterion met
 Total energy in the final basis set =      -93.4245717504
    7     -93.4245893714      2.80e-09  Convergence criterion met
 Total energy in the final basis set =      -93.4245893714

             Standard Nuclear Orientation (Angstroms)
    I     Atom           X                Y                Z
 ----------------------------------------------------------------
    1      C       0.0000000000     0.0000000000     1.1226641705
    2      N       0.0000000000     0.0000000000    -0.0344316467
    3      H       0.0000000000     0.0000000000     2.1917674762
 ----------------------------------------------------------------

    7     -93.4245910572      3.73e-09  Convergence criterion met
 Total energy in the final basis set =      -93.4245910572
 Final energy is   -93.4245910572207
 **  OPTIMIZATION CONVERGED  **

                    Orbital Energies (a.u.)
 --------------------------------------------------------------

 Alpha MOs
 -- Occupied --
-14.361 -10.246  -0.920  -0.608  -0.381  -0.359  -0.359

          Ground-State Mulliken Net Atomic Charges

     Atom                 Charge (a.u.)
  ----------------------------------------
      1 C                     0.159472
      2 N                    -0.368355
      3 H                     0.208883
  ----------------------------------------
  Sum of atomic charges =    -0.000000

                    Cartesian Multipole Moments
 -----------------------------------------------------------------
    Charge (ESU x 10^10)
                -0.0000
    Dipole Moment (Debye)
         X      -0.0000      Y      -0.0000      Z       2.8938
       Tot       2.8938
    Quadrupole Moments (Debye-Ang)
        XX     -11.3837     XY       0.0000     YY     -11.3837
        XZ       0.0000     YZ       0.0000     ZZ      -5.9753

 Total job time:  3.05s(wall), 23.85s(cpu)
        *  Thank you very much for using Q-Chem.  Have a nice day.  *
