 Q-Chem 5.1, Q-Chem, Inc., Pleasanton, CA (2018)
 Q-Chem 5.1.1 for Intel X86 EM64T Linux

User input:
--------------------------------------------------------------
$molecule
READ ./zmat.inp
$end

$rem
mem_total               230000
mem_static              2048
job_type                optimization
basis                   6-31g**
method                  b3lyp
symmetry                false
sym_ignore              true
geom_opt_max_cycles     500
$end
--------------------------------------------------------------

   13    -191.8995163694      3.24e-09  Convergence criterion met
 Total energy in the final basis set =     -191.8995163694
   11    -191.9029039162      7.72e-09  Convergence criterion met
 Total energy in the final basis set =     -191.9029039162
   11    -191.9026385726      9.05e-09  Convergence criterion met
 Total energy in the final basis set =     -191.9026385726
   12    -191.9033356007      1.62e-09  Convergence criterion met
 Total energy in the final basis set =     -191.9033356007
   11    -191.9034230722      3.27e-09  Convergence criterion met
 Total energy in the final basis set =     -191.9034230722
   11    -191.9037650120      9.92e-09  Convergence criterion met
 Total energy in the final basis set =     -191.9037650120
   12    -191.9048628564      2.03e-09  Convergence criterion met
 Total energy in the final basis set =     -191.9048628564
   12    -191.8927550469      3.32e-09  Convergence criterion met
   12    -191.9125497644      3.31e-09  Convergence criterion met
 Total energy in the final basis set =     -191.9125497644
   12    -191.9141495893      2.77e-09  Convergence criterion met
 Total energy in the final basis set =     -191.9141495893
   11    -191.9150415164      8.97e-09  Convergence criterion met
 Total energy in the final basis set =     -191.9150415164
   12    -191.9153517444      2.33e-09  Convergence criterion met
 Total energy in the final basis set =     -191.9153517444
   10    -191.9150252840      8.79e-09  Convergence criterion met
 Total energy in the final basis set =     -191.9150252840
   11    -191.9154003534      4.83e-09  Convergence criterion met
 Total energy in the final basis set =     -191.9154003534

             Standard Nuclear Orientation (Angstroms)
    I     Atom           X                Y                Z
 ----------------------------------------------------------------
    1      C      -0.0376979399     0.1715373584     0.0050512676
    2      C       0.0317411153    -0.2033139501     1.2869537650
    3      C       1.2653075170     0.0004944347     2.0873686366
    4      O       2.2858878025     0.5063472737     1.6601873605
    5      H      -0.9329953462     0.0283602973    -0.5912789553
    6      H       0.8213638801     0.6366641222    -0.4701051674
    7      H      -0.8115202875    -0.6709746262     1.7907534116
    8      H       1.2057455435    -0.3478713534     3.1410696814
 ----------------------------------------------------------------

    9    -191.9154005902      3.00e-09  Convergence criterion met
 Total energy in the final basis set =     -191.9154005902
 Final energy is   -191.915400590196
 **  OPTIMIZATION CONVERGED  **

                    Orbital Energies (a.u.)
 --------------------------------------------------------------

 Alpha MOs
 -- Occupied --
-19.148 -10.278 -10.214 -10.207  -1.042  -0.793  -0.659  -0.545
 -0.509  -0.446  -0.425  -0.396  -0.385  -0.287  -0.257

          Ground-State Mulliken Net Atomic Charges

     Atom                 Charge (a.u.)
  ----------------------------------------
      1 C                    -0.192285
      2 C                    -0.098882
      3 C                     0.273491
      4 O                    -0.405159
      5 H                     0.118848
      6 H                     0.141005
      7 H                     0.096339
      8 H                     0.066643
  ----------------------------------------
  Sum of atomic charges =     0.000000

                    Cartesian Multipole Moments
 -----------------------------------------------------------------
    Charge (ESU x 10^10)
                 0.0000
    Dipole Moment (Debye)
         X      -2.4871      Y      -0.8590      Z      -0.1607
       Tot       2.6362
    Quadrupole Moments (Debye-Ang)
        XX     -29.9722     XY      -1.5631     YY     -24.2731
        XZ      -3.1758     YZ      -2.2753     ZZ     -20.7770

 Total job time:  22.53s(wall), 177.83s(cpu)
        *  Thank you very much for using Q-Chem.  Have a nice day.  *
