 Q-Chem 5.1, Q-Chem, Inc., Pleasanton, CA (2018)
 Q-Chem 5.1.1 for Intel X86 EM64T Linux

User input:
--------------------------------------------------------------
$molecule
READ ./zmat.inp
$end

$rem
mem_total               230000
mem_static              2048
job_type                optimization
basis                   6-31g**
method                  b3lyp
symmetry                false
sym_ignore              true
geom_opt_max_cycles     500
$end
--------------------------------------------------------------

   14    -574.0390753598      6.27e-09  Convergence criterion met
 Total energy in the final basis set =     -574.0390753598
   11    -574.0518933870      6.64e-09  Convergence criterion met
 Total energy in the final basis set =     -574.0518933870
   12    -574.0844372862      1.65e-09  Convergence criterion met
 Total energy in the final basis set =     -574.0844372862
   11    -574.1073350055      5.90e-09  Convergence criterion met
 Total energy in the final basis set =     -574.1073350055
   11    -574.1125164535      3.45e-09  Convergence criterion met
 Total energy in the final basis set =     -574.1125164535
   11    -574.1159150582      1.29e-09  Convergence criterion met
 Total energy in the final basis set =     -574.1159150582
   10    -574.1179175931      3.92e-09  Convergence criterion met
 Total energy in the final basis set =     -574.1179175931
   10    -574.1181170449      4.65e-09  Convergence criterion met
 Total energy in the final basis set =     -574.1181170449
   10    -574.1183232857      4.42e-09  Convergence criterion met
 Total energy in the final basis set =     -574.1183232857
    9    -574.1184186959      9.32e-09  Convergence criterion met
 Total energy in the final basis set =     -574.1184186959
    9    -574.1184397202      3.33e-09  Convergence criterion met
 Total energy in the final basis set =     -574.1184397202
    8    -574.1184405738      4.31e-09  Convergence criterion met
 Total energy in the final basis set =     -574.1184405738

             Standard Nuclear Orientation (Angstroms)
    I     Atom           X                Y                Z
 ----------------------------------------------------------------
    1      O      -0.2018424945     0.0000000000     0.1080258423
    2      C       0.3899809270     0.0000000000     1.1351089386
    3      Cl      2.1849177037     0.0000000000     1.2475371501
    4      H      -0.0380561362     0.0000000000     2.1463280690
 ----------------------------------------------------------------

    7    -574.1184406476      4.87e-09  Convergence criterion met
 Total energy in the final basis set =     -574.1184406476
 Final energy is   -574.118440647630
 **  OPTIMIZATION CONVERGED  **

                    Orbital Energies (a.u.)
 --------------------------------------------------------------

 Alpha MOs
 -- Occupied --
******* -19.207 -10.355  -9.480  -7.243  -7.235  -7.234  -1.112
 -0.862  -0.637  -0.514  -0.483  -0.452  -0.338  -0.335  -0.316

          Ground-State Mulliken Net Atomic Charges

     Atom                 Charge (a.u.)
  ----------------------------------------
      1 O                    -0.289986
      2 C                     0.176000
      3 Cl                   -0.043728
      4 H                     0.157714
  ----------------------------------------
  Sum of atomic charges =    -0.000000

                    Cartesian Multipole Moments
 -----------------------------------------------------------------
    Charge (ESU x 10^10)
                 0.0000
    Dipole Moment (Debye)
         X      -0.5748      Y      -0.0000      Z       1.7871
       Tot       1.8773
    Quadrupole Moments (Debye-Ang)
        XX     -25.6114     XY      -0.0000     YY     -23.1181
        XZ      -1.2580     YZ      -0.0000     ZZ     -20.4404

 Total job time:  10.22s(wall), 80.35s(cpu)
        *  Thank you very much for using Q-Chem.  Have a nice day.  *
