 Q-Chem 5.1, Q-Chem, Inc., Pleasanton, CA (2018)
 Q-Chem 5.1.1 for Intel X86 EM64T Linux

User input:
--------------------------------------------------------------
$molecule
READ ./zmat.inp
$end

$rem
mem_total               230000
mem_static              2048
job_type                optimization
basis                   6-31g**
method                  b3lyp
symmetry                false
sym_ignore              true
geom_opt_max_cycles     500
$end
--------------------------------------------------------------

   15    -244.9750187067      1.14e-09  Convergence criterion met
 Total energy in the final basis set =     -244.9750187067
   11    -245.0116733531      5.42e-09  Convergence criterion met
 Total energy in the final basis set =     -245.0116733531
   11    -245.0320711720      4.60e-09  Convergence criterion met
 Total energy in the final basis set =     -245.0320711720
   11    -245.0389140237      4.63e-09  Convergence criterion met
 Total energy in the final basis set =     -245.0389140237
   10    -245.0394033004      8.90e-09  Convergence criterion met
 Total energy in the final basis set =     -245.0394033004
   10    -245.0394781659      3.58e-09  Convergence criterion met
 Total energy in the final basis set =     -245.0394781659
    9    -245.0394830757      7.15e-09  Convergence criterion met
 Total energy in the final basis set =     -245.0394830757

             Standard Nuclear Orientation (Angstroms)
    I     Atom           X                Y                Z
 ----------------------------------------------------------------
    1      O       0.1636714715     0.0000000000     0.0910182635
    2      C       0.2339988112     0.0000000000     1.3088916594
    3      N       1.4086447775     0.0000000000     1.9845988179
    4      O       1.3781773431     0.0000000000     3.3974414372
    5      H      -0.6298041478     0.0000000000     1.9978884786
    6      H       2.3067892160     0.0000000000     3.6661107511
    7      H       2.3016575179     0.0000000000     1.5107885395
 ----------------------------------------------------------------

    8    -245.0394836010      7.41e-09  Convergence criterion met
 Total energy in the final basis set =     -245.0394836010
 Final energy is   -245.039483600969
 **  OPTIMIZATION CONVERGED  **

                    Orbital Energies (a.u.)
 --------------------------------------------------------------

 Alpha MOs
 -- Occupied --
-19.218 -19.118 -14.421 -10.290  -1.108  -1.027  -0.866  -0.651
 -0.580  -0.503  -0.442  -0.422  -0.414  -0.359  -0.259  -0.238

          Ground-State Mulliken Net Atomic Charges

     Atom                 Charge (a.u.)
  ----------------------------------------
      1 O                    -0.474132
      2 C                     0.428155
      3 N                    -0.252443
      4 O                    -0.409896
      5 H                     0.092138
      6 H                     0.335206
      7 H                     0.280973
  ----------------------------------------
  Sum of atomic charges =     0.000000

                    Cartesian Multipole Moments
 -----------------------------------------------------------------
    Charge (ESU x 10^10)
                -0.0000
    Dipole Moment (Debye)
         X       3.1654      Y       0.0000      Z       2.7775
       Tot       4.2112
    Quadrupole Moments (Debye-Ang)
        XX     -10.9358     XY       0.0000     YY     -23.4710
        XZ       8.5969     YZ       0.0000     ZZ     -17.8235

 Total job time:  8.44s(wall), 66.50s(cpu)
        *  Thank you very much for using Q-Chem.  Have a nice day.  *
