 Q-Chem 5.1, Q-Chem, Inc., Pleasanton, CA (2018)
 Q-Chem 5.1.1 for Intel X86 EM64T Linux

User input:
--------------------------------------------------------------
$molecule
READ ./zmat.inp
$end

$rem
mem_total               230000
mem_static              2048
job_type                optimization
basis                   6-31g**
method                  b3lyp
symmetry                false
sym_ignore              true
geom_opt_max_cycles     500
$end
--------------------------------------------------------------

   10     -94.5489082779      4.54e-09  Convergence criterion met
 Total energy in the final basis set =      -94.5489082779
    8     -94.5709016951      3.34e-09  Convergence criterion met
 Total energy in the final basis set =      -94.5709016951
    8     -94.5756827376      2.95e-09  Convergence criterion met
 Total energy in the final basis set =      -94.5756827376
    7     -94.5772146987      7.65e-09  Convergence criterion met
 Total energy in the final basis set =      -94.5772146987
    6     -94.5774982609      9.46e-09  Convergence criterion met
 Total energy in the final basis set =      -94.5774982609
    7     -94.5777237810      3.30e-09  Convergence criterion met
 Total energy in the final basis set =      -94.5777237810
    7     -94.5779377452      2.65e-09  Convergence criterion met
 Total energy in the final basis set =      -94.5779377452
    7     -94.5781259453      2.29e-09  Convergence criterion met
    6     -94.5785942359      3.85e-09  Convergence criterion met
 Total energy in the final basis set =      -94.5785942359
    6     -94.5785989022      1.74e-09  Convergence criterion met
 Total energy in the final basis set =      -94.5785989022
    6     -94.5786024897      1.18e-09  Convergence criterion met
 Total energy in the final basis set =      -94.5786024897
    5     -94.5786051559      9.77e-09  Convergence criterion met
 Total energy in the final basis set =      -94.5786051559
    5     -94.5786069226      7.31e-09  Convergence criterion met
 Total energy in the final basis set =      -94.5786069226
    5     -94.5786080877      7.36e-09  Convergence criterion met
 Total energy in the final basis set =      -94.5786080877

             Standard Nuclear Orientation (Angstroms)
    I     Atom           X                Y                Z
 ----------------------------------------------------------------
    1      C       0.8988844467     0.0000000000     0.0000000000
    2      N       2.0756723275     0.0000000000     0.0000000000
    3      H       3.0740726700     0.0000000000     0.0000000000
    4      H      -4.3443147221    -0.3713512166     0.0000000000
    5      H      -4.3443147221     0.3713512166     0.0000000000
 ----------------------------------------------------------------

    5     -94.5786089415      5.09e-09  Convergence criterion met
 Total energy in the final basis set =      -94.5786089415
 Final energy is   -94.5786089415494
 **  OPTIMIZATION CONVERGED  **

                    Orbital Energies (a.u.)
 --------------------------------------------------------------

 Alpha MOs
 -- Occupied --
-14.377 -10.235  -0.942  -0.663  -0.423  -0.371  -0.371  -0.312

          Ground-State Mulliken Net Atomic Charges

     Atom                 Charge (a.u.)
  ----------------------------------------
      1 C                     0.047009
      2 N                    -0.348303
      3 H                     0.301291
      4 H                     0.000002
      5 H                     0.000002
  ----------------------------------------
  Sum of atomic charges =     0.000000

                    Cartesian Multipole Moments
 -----------------------------------------------------------------
    Charge (ESU x 10^10)
                 0.0000
    Dipole Moment (Debye)
         X       2.9123      Y       0.0000      Z       0.0000
       Tot       2.9123
    Quadrupole Moments (Debye-Ang)
        XX      -2.4523     XY      -0.0000     YY     -13.0155
        XZ       0.0000     YZ      -0.0000     ZZ     -13.5367

 Total job time:  15.78s(wall), 124.12s(cpu)
        *  Thank you very much for using Q-Chem.  Have a nice day.  *
