 Q-Chem 5.1, Q-Chem, Inc., Pleasanton, CA (2018)
 Q-Chem 5.1.1 for Intel X86 EM64T Linux

User input:
--------------------------------------------------------------
$molecule
READ ./zmat.inp
$end

$rem
mem_total               230000
mem_static              2048
job_type                optimization
basis                   6-31g**
method                  b3lyp
symmetry                false
sym_ignore              true
geom_opt_max_cycles     500
$end
--------------------------------------------------------------

   15    -529.4067975128      2.12e-09  Convergence criterion met
 Total energy in the final basis set =     -529.4067975128
   12    -529.4879284417      3.63e-09  Convergence criterion met
 Total energy in the final basis set =     -529.4879284417
   11    -529.5171410121      7.45e-09  Convergence criterion met
 Total energy in the final basis set =     -529.5171410121
   12    -529.5453107598      1.60e-09  Convergence criterion met
 Total energy in the final basis set =     -529.5453107598
   10    -529.5588338266      7.82e-09  Convergence criterion met
 Total energy in the final basis set =     -529.5588338266
   10    -529.5750614889      8.49e-09  Convergence criterion met
 Total energy in the final basis set =     -529.5750614889
   10    -529.5868196669      7.13e-09  Convergence criterion met
 Total energy in the final basis set =     -529.5868196669
   10    -529.5943255007      5.88e-09  Convergence criterion met
    9    -529.6092249890      8.73e-09  Convergence criterion met
 Total energy in the final basis set =     -529.6092249890
    9    -529.6092278388      7.28e-09  Convergence criterion met
 Total energy in the final basis set =     -529.6092278388
    9    -529.6092298140      5.78e-09  Convergence criterion met
 Total energy in the final basis set =     -529.6092298140
    9    -529.6092314574      4.79e-09  Convergence criterion met
 Total energy in the final basis set =     -529.6092314574
    9    -529.6092328481      3.87e-09  Convergence criterion met
 Total energy in the final basis set =     -529.6092328481
    9    -529.6092345439      2.36e-09  Convergence criterion met
 Total energy in the final basis set =     -529.6092345439

             Standard Nuclear Orientation (Angstroms)
    I     Atom           X                Y                Z
 ----------------------------------------------------------------
    1      H      -2.6167289656     0.0000000000     1.0233927016
    2      N      -1.6513365173     0.0000000000     1.2778008945
    3      C      -0.5142492899     0.0000000000     1.5808228973
    4      C       8.2050340260     0.0000000000     2.1214713178
    5      S       9.3540215463     0.0000000000     3.1597848679
 ----------------------------------------------------------------

    9    -529.6092345550      1.18e-09  Convergence criterion met
 Total energy in the final basis set =     -529.6092345550
 Final energy is   -529.609234555049
 **  OPTIMIZATION CONVERGED  **

                    Orbital Energies (a.u.)
 --------------------------------------------------------------

 Alpha MOs
 -- Occupied --
-88.923 -14.375 -10.284 -10.234  -7.990  -5.950  -5.950  -5.950
 -0.940  -0.833  -0.662  -0.519  -0.369  -0.369  -0.350  -0.350
 -0.311  -0.307

          Ground-State Mulliken Net Atomic Charges

     Atom                 Charge (a.u.)
  ----------------------------------------
      1 H                     0.300991
      2 N                    -0.348483
      3 C                     0.047492
      4 C                    -0.095551
      5 S                     0.095551
  ----------------------------------------
  Sum of atomic charges =     0.000000

                    Cartesian Multipole Moments
 -----------------------------------------------------------------
    Charge (ESU x 10^10)
                 0.0000
    Dipole Moment (Debye)
         X      -1.7034      Y      -0.0000      Z       0.2625
       Tot       1.7235
    Quadrupole Moments (Debye-Ang)
        XX      -2.4234     XY      -0.0000     YY     -29.3944
        XZ       8.4429     YZ      -0.0000     ZZ     -26.6909

 Total job time:  41.02s(wall), 322.98s(cpu)
        *  Thank you very much for using Q-Chem.  Have a nice day.  *
