 Q-Chem 5.1, Q-Chem, Inc., Pleasanton, CA (2018)
 Q-Chem 5.1.1 for Intel X86 EM64T Linux

User input:
--------------------------------------------------------------
$molecule
READ ./zmat.inp
$end

$rem
mem_total               230000
mem_static              2048
job_type                optimization
basis                   6-31g**
method                  b3lyp
symmetry                false
sym_ignore              true
geom_opt_max_cycles     500
$end
--------------------------------------------------------------

   13    -244.9751742767      7.56e-09  Convergence criterion met
 Total energy in the final basis set =     -244.9751742767
   12    -244.9846468332      3.63e-09  Convergence criterion met
 Total energy in the final basis set =     -244.9846468332
   12    -245.0034422705      2.28e-09  Convergence criterion met
 Total energy in the final basis set =     -245.0034422705
   12    -245.0199460812      2.49e-09  Convergence criterion met
 Total energy in the final basis set =     -245.0199460812
   11    -245.0337065020      9.40e-09  Convergence criterion met
 Total energy in the final basis set =     -245.0337065020
   11    -245.0413679607      6.36e-09  Convergence criterion met
 Total energy in the final basis set =     -245.0413679607
   11    -245.0436398153      2.18e-09  Convergence criterion met
 Total energy in the final basis set =     -245.0436398153
   10    -245.0438201039      2.82e-09  Convergence criterion met
 Total energy in the final basis set =     -245.0438201039
    9    -245.0438422242      9.81e-09  Convergence criterion met
 Total energy in the final basis set =     -245.0438422242

             Standard Nuclear Orientation (Angstroms)
    I     Atom           X                Y                Z
 ----------------------------------------------------------------
    1      O       0.0358482964     0.0000000000     0.0566671764
    2      C       0.2443853405     0.0000000000     1.3891659838
    3      N       1.4243835030     0.0000000000     1.8695519594
    4      O       1.3831716989     0.0000000000     3.2851435375
    5      H      -0.6715973390     0.0000000000     1.9759933942
    6      H       2.3225599866     0.0000000000     3.5106639364
    7      H       0.9079458029     0.0000000000    -0.3716764639
 ----------------------------------------------------------------

    9    -245.0438463306      3.02e-09  Convergence criterion met
 Total energy in the final basis set =     -245.0438463306
 Final energy is   -245.043846330607
 **  OPTIMIZATION CONVERGED  **

                    Orbital Energies (a.u.)
 --------------------------------------------------------------

 Alpha MOs
 -- Occupied --
-19.196 -19.184 -14.374 -10.277  -1.090  -1.061  -0.846  -0.641
 -0.541  -0.501  -0.443  -0.431  -0.399  -0.362  -0.287  -0.234

          Ground-State Mulliken Net Atomic Charges

     Atom                 Charge (a.u.)
  ----------------------------------------
      1 O                    -0.483394
      2 C                     0.369437
      3 N                    -0.245224
      4 O                    -0.430173
      5 H                     0.128954
      6 H                     0.334105
      7 H                     0.326296
  ----------------------------------------
  Sum of atomic charges =     0.000000

                    Cartesian Multipole Moments
 -----------------------------------------------------------------
    Charge (ESU x 10^10)
                -0.0000
    Dipole Moment (Debye)
         X       0.9465      Y       0.0000      Z      -0.2728
       Tot       0.9850
    Quadrupole Moments (Debye-Ang)
        XX     -18.7100     XY      -0.0000     YY     -23.6172
        XZ       1.4640     YZ       0.0000     ZZ     -21.4027

 Total job time:  9.42s(wall), 74.11s(cpu)
        *  Thank you very much for using Q-Chem.  Have a nice day.  *
