 Q-Chem 5.1, Q-Chem, Inc., Pleasanton, CA (2018)
 Q-Chem 5.1.1 for Intel X86 EM64T Linux

User input:
--------------------------------------------------------------
$molecule
READ ./zmat.inp
$end

$rem
mem_total               230000
mem_static              2048
job_type                optimization
basis                   6-31g**
method                  b3lyp
symmetry                false
sym_ignore              true
geom_opt_max_cycles     500
$end
--------------------------------------------------------------

   13    -153.7003146694      3.21e-09  Convergence criterion met
 Total energy in the final basis set =     -153.7003146694
   11    -153.7258709004      4.14e-09  Convergence criterion met
 Total energy in the final basis set =     -153.7258709004
   11    -153.7478421851      2.97e-09  Convergence criterion met
 Total energy in the final basis set =     -153.7478421851
   11    -153.7663995440      2.14e-09  Convergence criterion met
 Total energy in the final basis set =     -153.7663995440
   10    -153.7816509482      8.04e-09  Convergence criterion met
 Total energy in the final basis set =     -153.7816509482
   10    -153.7940244314      7.39e-09  Convergence criterion met
 Total energy in the final basis set =     -153.7940244314
   10    -153.8043907463      3.59e-09  Convergence criterion met
 Total energy in the final basis set =     -153.8043907463
   10    -153.8131756255      3.96e-09  Convergence criterion met
    9    -153.8357144576      2.89e-09  Convergence criterion met
 Total energy in the final basis set =     -153.8357144576
    9    -153.8357184708      5.97e-09  Convergence criterion met
 Total energy in the final basis set =     -153.8357184708
    9    -153.8357223266      5.68e-09  Convergence criterion met
 Total energy in the final basis set =     -153.8357223266
   10    -153.8357265803      3.07e-09  Convergence criterion met
 Total energy in the final basis set =     -153.8357265803
    9    -153.8357293793      6.13e-09  Convergence criterion met
 Total energy in the final basis set =     -153.8357293793
    9    -153.8357309959      3.79e-09  Convergence criterion met
 Total energy in the final basis set =     -153.8357309959

             Standard Nuclear Orientation (Angstroms)
    I     Atom           X                Y                Z
 ----------------------------------------------------------------
    1      C       0.1207942164     0.0205993886     0.1351697975
    2      C      -0.0133099825     0.0195624891     1.6363565541
    3      O       0.9172971511     0.0390628849     2.4104894044
    4      H      -0.3676423564    -0.8685753215    -0.2821358242
    5      H      -0.4029702780     0.8896098309    -0.2820413745
    6      H      -1.0624789177    -0.0001323798     2.0113507745
    7      H       1.1723706005     0.0427822473    -0.1559403761
 ----------------------------------------------------------------

    8    -153.8357318116      8.86e-09  Convergence criterion met
 Total energy in the final basis set =     -153.8357318116
 Final energy is   -153.835731811553
 **  OPTIMIZATION CONVERGED  **

                    Orbital Energies (a.u.)
 --------------------------------------------------------------

 Alpha MOs
 -- Occupied --
-19.151 -10.282 -10.198  -1.046  -0.754  -0.581  -0.477  -0.444
 -0.434  -0.398  -0.364  -0.255

          Ground-State Mulliken Net Atomic Charges

     Atom                 Charge (a.u.)
  ----------------------------------------
      1 C                    -0.386369
      2 C                     0.298269
      3 O                    -0.383050
      4 H                     0.133283
      5 H                     0.133189
      6 H                     0.063371
      7 H                     0.141308
  ----------------------------------------
  Sum of atomic charges =     0.000000

                    Cartesian Multipole Moments
 -----------------------------------------------------------------
    Charge (ESU x 10^10)
                 0.0000
    Dipole Moment (Debye)
         X      -1.6923      Y      -0.0353      Z      -2.0389
       Tot       2.6500
    Quadrupole Moments (Debye-Ang)
        XX     -19.4838     XY      -0.0711     YY     -17.6053
        XZ      -4.2491     YZ      -0.1289     ZZ     -25.1085

 Total job time:  22.20s(wall), 175.22s(cpu)
        *  Thank you very much for using Q-Chem.  Have a nice day.  *
