 Q-Chem 5.1, Q-Chem, Inc., Pleasanton, CA (2018)
 Q-Chem 5.1.1 for Intel X86 EM64T Linux

User input:
--------------------------------------------------------------
$molecule
READ ./zmat.inp
$end

$rem
mem_total               230000
mem_static              2048
job_type                optimization
basis                   6-31g**
method                  b3lyp
symmetry                false
sym_ignore              true
geom_opt_max_cycles     500
$end
--------------------------------------------------------------

   13    -191.9149423483      2.43e-09  Convergence criterion met
 Total energy in the final basis set =     -191.9149423483
   11    -191.9177893434      2.48e-09  Convergence criterion met
 Total energy in the final basis set =     -191.9177893434
    9    -191.9179932232      9.91e-09  Convergence criterion met
 Total energy in the final basis set =     -191.9179932232
    8    -191.9180061496      8.98e-09  Convergence criterion met
 Total energy in the final basis set =     -191.9180061496

             Standard Nuclear Orientation (Angstroms)
    I     Atom           X                Y                Z
 ----------------------------------------------------------------
    1      C      -0.0029090897     0.0000000000    -0.0021851934
    2      C      -0.0150218969     0.0000000000     1.3351358012
    3      C       1.2410627391     0.0000000000     2.1083828206
    4      O       1.2960314926     0.0000000000     3.3225016995
    5      H      -0.9143543400     0.0000000000    -0.5911199459
    6      H       0.9347204181     0.0000000000    -0.5541311296
    7      H      -0.9383002946     0.0000000000     1.9090468051
    8      H       2.1659814780     0.0000000000     1.4873691427
 ----------------------------------------------------------------

    8    -191.9180066331      6.17e-09  Convergence criterion met
 Total energy in the final basis set =     -191.9180066331
 Final energy is   -191.918006633091
 **  OPTIMIZATION CONVERGED  **

                    Orbital Energies (a.u.)
 --------------------------------------------------------------

 Alpha MOs
 -- Occupied --
-19.148 -10.278 -10.222 -10.211  -1.043  -0.804  -0.649  -0.574
 -0.478  -0.475  -0.419  -0.398  -0.394  -0.294  -0.257

          Ground-State Mulliken Net Atomic Charges

     Atom                 Charge (a.u.)
  ----------------------------------------
      1 C                    -0.221686
      2 C                    -0.069116
      3 C                     0.279650
      4 O                    -0.409714
      5 H                     0.125473
      6 H                     0.119168
      7 H                     0.114441
      8 H                     0.061785
  ----------------------------------------
  Sum of atomic charges =     0.000000

                    Cartesian Multipole Moments
 -----------------------------------------------------------------
    Charge (ESU x 10^10)
                -0.0000
    Dipole Moment (Debye)
         X      -0.8241      Y      -0.0000      Z      -3.0408
       Tot       3.1505
    Quadrupole Moments (Debye-Ang)
        XX     -22.8447     XY      -0.0000     YY     -24.2766
        XZ      -4.6691     YZ      -0.0000     ZZ     -35.9940

 Total job time:  5.46s(wall), 42.98s(cpu)
        *  Thank you very much for using Q-Chem.  Have a nice day.  *
