 Q-Chem 5.1, Q-Chem, Inc., Pleasanton, CA (2018)
 Q-Chem 5.1.1 for Intel X86 EM64T Linux

User input:
--------------------------------------------------------------
$molecule
READ ./zmat.inp
$end

$rem
mem_total               230000
mem_static              2048
job_type                optimization
basis                   6-31g**
method                  b3lyp
symmetry                false
sym_ignore              true
geom_opt_max_cycles     500
$end
--------------------------------------------------------------

   12    -370.4086118546      2.88e-09  Convergence criterion met
 Total energy in the final basis set =     -370.4086118546
   11    -370.4393252920      2.11e-09  Convergence criterion met
 Total energy in the final basis set =     -370.4393252920
   10    -370.4621088298      4.16e-09  Convergence criterion met
 Total energy in the final basis set =     -370.4621088298
   10    -370.4979557633      6.31e-09  Convergence criterion met
 Total energy in the final basis set =     -370.4979557633
   10    -370.5158668642      4.42e-09  Convergence criterion met
 Total energy in the final basis set =     -370.5158668642
   10    -370.5264148654      2.21e-09  Convergence criterion met
 Total energy in the final basis set =     -370.5264148654
   10    -370.5289183489      2.36e-09  Convergence criterion met
 Total energy in the final basis set =     -370.5289183489
    9    -370.5305800804      9.80e-09  Convergence criterion met
 Total energy in the final basis set =     -370.5305800804
    9    -370.5309109774      5.81e-09  Convergence criterion met
 Total energy in the final basis set =     -370.5309109774
    9    -370.5309580707      2.27e-09  Convergence criterion met
 Total energy in the final basis set =     -370.5309580707
    9    -370.5310989085      2.94e-09  Convergence criterion met
 Total energy in the final basis set =     -370.5310989085
    8    -370.5311191434      5.22e-09  Convergence criterion met
 Total energy in the final basis set =     -370.5311191434

             Standard Nuclear Orientation (Angstroms)
    I     Atom           X                Y                Z
 ----------------------------------------------------------------
    1      C      -0.0354985397    -0.0519185288     0.0378727363
    2      C      -0.0733511427    -0.1085735243     1.5749935037
    3      Si      1.6296695413     0.0302419011     2.3937802408
    4      H       0.3919694509     0.8914685155    -0.3183290453
    5      H       0.5700527354    -0.8640068374    -0.3787427866
    6      H      -1.0400771954    -0.1394012473    -0.3901555296
    7      H      -0.7090108454     0.6957940639     1.9665762243
    8      H      -0.5383127118    -1.0458356945     1.9064048209
    9      H       2.5091757508    -1.0947025713     1.9691591625
   10      H       2.2950181241     1.3053352967     2.0062331446
   11      H       1.5125526103    -0.0037159842     3.8780932301
 ----------------------------------------------------------------

    7    -370.5311203446      9.36e-09  Convergence criterion met
 Total energy in the final basis set =     -370.5311203446
 Final energy is   -370.531120344582
 **  OPTIMIZATION CONVERGED  **

                    Orbital Energies (a.u.)
 --------------------------------------------------------------

 Alpha MOs
 -- Occupied --
-66.118 -10.183 -10.179  -5.270  -3.628  -3.628  -3.628  -0.755
 -0.622  -0.517  -0.443  -0.417  -0.375  -0.356  -0.332  -0.330
 -0.300

          Ground-State Mulliken Net Atomic Charges

     Atom                 Charge (a.u.)
  ----------------------------------------
      1 C                    -0.319830
      2 C                    -0.382507
      3 Si                    0.434006
      4 H                     0.112770
      5 H                     0.112796
      6 H                     0.106039
      7 H                     0.118013
      8 H                     0.118086
      9 H                    -0.099849
     10 H                    -0.100007
     11 H                    -0.099518
  ----------------------------------------
  Sum of atomic charges =    -0.000000

                    Cartesian Multipole Moments
 -----------------------------------------------------------------
    Charge (ESU x 10^10)
                 0.0000
    Dipole Moment (Debye)
         X      -0.7704      Y      -0.0622      Z      -0.3554
       Tot       0.8507
    Quadrupole Moments (Debye-Ang)
        XX     -30.9215     XY      -0.0580     YY     -29.2484
        XZ      -1.9260     YZ      -0.1094     ZZ     -31.0026

 Total job time:  16.32s(wall), 129.31s(cpu)
        *  Thank you very much for using Q-Chem.  Have a nice day.  *
