 Q-Chem 5.1, Q-Chem, Inc., Pleasanton, CA (2018)
 Q-Chem 5.1.1 for Intel X86 EM64T Linux

User input:
--------------------------------------------------------------
$molecule
READ ./zmat.inp
$end

$rem
mem_total               230000
mem_static              2048
job_type                optimization
basis                   6-31g**
method                  b3lyp
symmetry                false
sym_ignore              true
geom_opt_max_cycles     500
$end
--------------------------------------------------------------

   15    -270.4595236286      2.19e-09  Convergence criterion met
 Total energy in the final basis set =     -270.4595236286
   13    -270.4790065367      8.19e-09  Convergence criterion met
 Total energy in the final basis set =     -270.4790065367
   12    -270.4969987774      9.22e-09  Convergence criterion met
 Total energy in the final basis set =     -270.4969987774
   12    -270.5109572166      6.84e-09  Convergence criterion met
 Total energy in the final basis set =     -270.5109572166
   12    -270.5226509758      4.11e-09  Convergence criterion met
 Total energy in the final basis set =     -270.5226509758
   12    -270.5319956670      4.54e-09  Convergence criterion met
 Total energy in the final basis set =     -270.5319956670
   11    -270.5377675179      4.76e-09  Convergence criterion met
 Total energy in the final basis set =     -270.5377675179
   11    -270.5400064709      4.98e-09  Convergence criterion met
   10    -270.5449882316      6.38e-09  Convergence criterion met
 Total energy in the final basis set =     -270.5449882316
   11    -270.5450807695      5.89e-09  Convergence criterion met
 Total energy in the final basis set =     -270.5450807695
   11    -270.5451563037      7.29e-09  Convergence criterion met
 Total energy in the final basis set =     -270.5451563037
   11    -270.5451859496      2.96e-09  Convergence criterion met
 Total energy in the final basis set =     -270.5451859496
   10    -270.5451935499      6.52e-09  Convergence criterion met
 Total energy in the final basis set =     -270.5451935499
    8    -270.5451946431      7.73e-09  Convergence criterion met
 Total energy in the final basis set =     -270.5451946431

             Standard Nuclear Orientation (Angstroms)
    I     Atom           X                Y                Z
 ----------------------------------------------------------------
    1      C       0.3258537309    -0.2213864549     0.0535484203
    2      C       0.1853952363    -0.0387464310     1.5414443373
    3      C       0.9409586692     0.7649450084     2.2894579239
    4      O       2.0893706821    -3.2799493054     0.6835164812
    5      C       1.9194204351    -2.2038969585     0.1562147090
    6      C       0.5877052110    -1.6896255251    -0.3469669643
    7      H       1.1357368591     0.4165014275    -0.3226102455
    8      H      -0.5918454277     0.1099421211    -0.4500283456
    9      H      -0.5962760055    -0.6302402976     2.0198738237
   10      H       0.7938789033     0.8522631931     3.3615639136
   11      H       1.7341126676     1.3695682395     1.8556245908
   12      H       0.6066027309    -1.7631854229    -1.4445336479
   13      H      -0.1995225113    -2.3582318340     0.0152410163
   14      H       2.7760699061    -1.5092836154    -0.0106805625
 ----------------------------------------------------------------

    8    -270.5451948407      9.92e-09  Convergence criterion met
 Total energy in the final basis set =     -270.5451948407
 Final energy is   -270.545194840750
 **  OPTIMIZATION CONVERGED  **

                    Orbital Energies (a.u.)
 --------------------------------------------------------------

 Alpha MOs
 -- Occupied --
-19.148 -10.277 -10.205 -10.202 -10.197 -10.186  -1.044  -0.817
 -0.752  -0.663  -0.578  -0.564  -0.481  -0.465  -0.449  -0.438
 -0.414  -0.391  -0.370  -0.360  -0.343  -0.266  -0.248

          Ground-State Mulliken Net Atomic Charges

     Atom                 Charge (a.u.)
  ----------------------------------------
      1 C                    -0.230901
      2 C                    -0.018502
      3 C                    -0.239242
      4 O                    -0.392484
      5 C                     0.312940
      6 C                    -0.252557
      7 H                     0.103622
      8 H                     0.117642
      9 H                     0.091177
     10 H                     0.103716
     11 H                     0.094762
     12 H                     0.124080
     13 H                     0.126488
     14 H                     0.059260
  ----------------------------------------
  Sum of atomic charges =    -0.000000

                    Cartesian Multipole Moments
 -----------------------------------------------------------------
    Charge (ESU x 10^10)
                -0.0000
    Dipole Moment (Debye)
         X      -1.0131      Y       2.2128      Z      -1.2463
       Tot       2.7343
    Quadrupole Moments (Debye-Ang)
        XX     -38.6890     XY       7.5446     YY     -48.4478
        XZ      -2.7604     YZ       4.2589     ZZ     -35.6641

 Total job time:  58.13s(wall), 462.36s(cpu)
        *  Thank you very much for using Q-Chem.  Have a nice day.  *
