 Q-Chem 5.1, Q-Chem, Inc., Pleasanton, CA (2018)
 Q-Chem 5.1.1 for Intel X86 EM64T Linux

User input:
--------------------------------------------------------------
$molecule
READ ./zmat.inp
$end

$rem
mem_total               230000
mem_static              2048
job_type                optimization
basis                   6-31g**
method                  b3lyp
symmetry                false
sym_ignore              true
geom_opt_max_cycles     500
$end
--------------------------------------------------------------

   11    -234.5624111538      6.98e-09  Convergence criterion met
 Total energy in the final basis set =     -234.5624111538
    9    -234.5708336174      9.46e-09  Convergence criterion met
 Total energy in the final basis set =     -234.5708336174
    9    -234.5765730032      2.90e-09  Convergence criterion met
 Total energy in the final basis set =     -234.5765730032
    9    -234.5802600044      4.46e-09  Convergence criterion met
 Total energy in the final basis set =     -234.5802600044
    9    -234.5829504866      4.59e-09  Convergence criterion met
 Total energy in the final basis set =     -234.5829504866
    9    -234.5848703072      3.94e-09  Convergence criterion met
 Total energy in the final basis set =     -234.5848703072
    9    -234.5862525659      3.49e-09  Convergence criterion met
 Total energy in the final basis set =     -234.5862525659
    8    -234.5872506177      9.97e-09  Convergence criterion met
    7    -234.5888481219      8.19e-09  Convergence criterion met
 Total energy in the final basis set =     -234.5888481219
    7    -234.5888598586      8.82e-09  Convergence criterion met
 Total energy in the final basis set =     -234.5888598586
    8    -234.5888661302      9.83e-10  Convergence criterion met
 Total energy in the final basis set =     -234.5888661302
    7    -234.5888710355      5.21e-09  Convergence criterion met
 Total energy in the final basis set =     -234.5888710355
    6    -234.5888739152      8.35e-09  Convergence criterion met
 Total energy in the final basis set =     -234.5888739152
    7    -234.5888752971      2.62e-09  Convergence criterion met
 Total energy in the final basis set =     -234.5888752971

             Standard Nuclear Orientation (Angstroms)
    I     Atom           X                Y                Z
 ----------------------------------------------------------------
    1      C       0.0477810193     1.5465835781    -0.0248726820
    2      C       0.0477810193    -1.5465835781    -0.0248726820
    3      C       1.1111115030    -0.7353949726     0.0479857782
    4      C       1.1111115030     0.7353949727     0.0479857782
    5      C       0.7097366538    -0.6650178442    -4.0873977635
    6      C       0.7097366539     0.6650178442    -4.0873977635
    7      H       2.0970231601    -1.1932362670     0.1155074092
    8      H       2.0970231601     1.1932362671     0.1155074093
    9      H       0.1639211635     2.6253902091    -0.0159309722
   10      H       0.1639211636    -2.6253902091    -0.0159309723
   11      H      -0.9687592912     1.1700500401    -0.0961539459
   12      H      -0.9687592911    -1.1700500402    -0.0961539459
   13      H      -0.1989359060    -1.2394183599    -4.2461761196
   14      H      -0.1989359058     1.2394183600    -4.2461761196
   15      H       1.6182831813    -1.2373634730    -3.9214329196
   16      H       1.6182831815     1.2373634729    -3.9214329196
 ----------------------------------------------------------------

    7    -234.5888762229      2.49e-09  Convergence criterion met
 Total energy in the final basis set =     -234.5888762229
 Final energy is   -234.588876222864
 **  OPTIMIZATION CONVERGED  **

                    Orbital Energies (a.u.)
 --------------------------------------------------------------

 Alpha MOs
 -- Occupied --
-10.190 -10.190 -10.181 -10.181 -10.179 -10.178  -0.797  -0.750
 -0.723  -0.616  -0.572  -0.524  -0.485  -0.459  -0.434  -0.414
 -0.411  -0.357  -0.347  -0.345  -0.316  -0.261  -0.226

          Ground-State Mulliken Net Atomic Charges

     Atom                 Charge (a.u.)
  ----------------------------------------
      1 C                    -0.235076
      2 C                    -0.235076
      3 C                    -0.041519
      4 C                    -0.041519
      5 C                    -0.197274
      6 C                    -0.197274
      7 H                     0.081773
      8 H                     0.081773
      9 H                     0.099682
     10 H                     0.099682
     11 H                     0.096160
     12 H                     0.096160
     13 H                     0.097799
     14 H                     0.097799
     15 H                     0.098456
     16 H                     0.098456
  ----------------------------------------
  Sum of atomic charges =    -0.000000

                    Cartesian Multipole Moments
 -----------------------------------------------------------------
    Charge (ESU x 10^10)
                -0.0000
    Dipole Moment (Debye)
         X       0.0716      Y      -0.0000      Z       0.0549
       Tot       0.0903
    Quadrupole Moments (Debye-Ang)
        XX     -34.7530     XY       0.0000     YY     -34.9294
        XZ       0.8921     YZ       0.0000     ZZ     -43.1207

 Total job time:  40.25s(wall), 320.19s(cpu)
        *  Thank you very much for using Q-Chem.  Have a nice day.  *
