 Q-Chem 5.1, Q-Chem, Inc., Pleasanton, CA (2018)
 Q-Chem 5.1.1 for Intel X86 EM64T Linux

User input:
--------------------------------------------------------------
$molecule
0 1
C    0.0000000    0.0000000    0.0000000
N    0.0000000    1.0000000    0.0000000
H    0.0000000    2.0000000    0.0000000
$end

$rem
mem_total               230000
mem_static              2048
job_type                optimization
basis                   aug-cc-pvtz
method                  b3lyp
symmetry                false
sym_ignore              true
geom_opt_max_cycles     500
$end
--------------------------------------------------------------

   10     -93.3605129233      2.54e-09  Convergence criterion met
 Total energy in the final basis set =      -93.3605129233
   10     -93.4193341854      4.41e-10  Convergence criterion met
 Total energy in the final basis set =      -93.4193341854
    9     -93.4391415030      8.34e-10  Convergence criterion met
 Total energy in the final basis set =      -93.4391415030
    8     -93.4403683989      2.12e-09  Convergence criterion met
 Total energy in the final basis set =      -93.4403683989
    8     -93.4404589072      1.30e-09  Convergence criterion met
 Total energy in the final basis set =      -93.4404589072
    7     -93.4404633798      3.51e-09  Convergence criterion met
 Total energy in the final basis set =      -93.4404633798

             Standard Nuclear Orientation (Angstroms)
    I     Atom           X                Y                Z
 ----------------------------------------------------------------
    1      C       0.0000000000    -0.1085029822     0.0000000000
    2      N       0.0000000000     1.0558268855     0.0000000000
    3      H       0.0000000000     2.0526760967     0.0000000000
 ----------------------------------------------------------------

    7     -93.4404640726      1.79e-09  Convergence criterion met
 Total energy in the final basis set =      -93.4404640726
 Final energy is   -93.4404640725556
 **  OPTIMIZATION CONVERGED  **

                    Orbital Energies (a.u.)
 --------------------------------------------------------------

 Alpha MOs
 -- Occupied --
-14.367 -10.235  -0.961  -0.678  -0.391  -0.391  -0.330

          Ground-State Mulliken Net Atomic Charges

     Atom                 Charge (a.u.)
  ----------------------------------------
      1 C                    -0.325328
      2 N                     0.088343
      3 H                     0.236985
  ----------------------------------------
  Sum of atomic charges =    -0.000000

                    Cartesian Multipole Moments
 -----------------------------------------------------------------
    Charge (ESU x 10^10)
                -0.0000
    Dipole Moment (Debye)
         X       0.0000      Y       3.0618      Z      -0.0000
       Tot       3.0618
    Quadrupole Moments (Debye-Ang)
        XX     -12.1421     XY      -0.0000     YY      -6.7017
        XZ      -0.0000     YZ      -0.0000     ZZ     -12.1421

 Total job time:  40.73s(wall), 203.74s(cpu)
        *  Thank you very much for using Q-Chem.  Have a nice day.  *
